 written on  7Oct2018 at 06:01:04 
          15
         235
    1    2    2    2    1    1    1    1    1    2    1    1    2    1    1
    1    1    1    1    1    2    2    2    2    2    1    1    1    1    1
    1    1    1    1    1    1    1    1    1    1    1    1    1    1    1
    1    1    1    2    1    1    1    1    1    2    1    1    1    1    2
    2    1    1    1    1    1    1    1    1    1    1    1    1    1    1
    1    1    1    1    1    1    2    1    1    1    1    1    2    1    1
    1    1    1    1    1    1    1    1    2    1    1    2    1    1    1
    1    1    1    1    1    1    1    1    1    2    1    1    1    1    1
    2    1    1    1    1    1    1    1    1    1    1    1    1    2    1
    1    2    1    1    1    1    1    1    1    1    1    1    2    1    1
    1    1    1    2    1    1    1    1    1    1    1    1    1    1    1
    1    1    1    1    1    1    1    1    1    2    2    1    1    1    1
    2    1    1    1    1    1    2    1    1    1    1    1    1    1    1
    1    1    1    1    1    1    1    1    1    1    1    1    1    1    1
    2    2    2    2    2    1    1    1    1    1    1    1    2    1    1
    2    1    1    1    1    1    2    2    2    1
   -4    1    1    1    1    0.000981   -0.000000
   -4    1    1    2    1    0.000489    0.000000
   -4    1    1    3    1    0.000489    0.000000
   -4    1    1    4    1    0.000898    0.000000
   -4    1    1    5    1   -0.000899    0.000001
   -4    1    1    6    1    0.001605    0.000000
   -4    1    1    7    1    0.000161    0.000000
   -4    1    1    8    1    0.008638    0.000004
   -4    1    1    9    1    0.000161   -0.000000
   -4    1    1   10    1   -0.001573   -0.000000
   -4    1    1   11    1   -0.000678   -0.000000
   -4    1    1   12    1    0.000685   -0.000000
   -4    1    1   13    1   -0.001137    0.000000
   -4    1    1   14    1    0.001137    0.000000
   -4    1    1   15    1    0.003819    0.000000
   -4    1    1    1    2    0.000149   -0.000000
   -4    1    1    2    2   -0.000220   -0.000000
   -4    1    1    3    2    0.000402    0.000000
   -4    1    1    4    2   -0.004199   -0.000001
   -4    1    1    5    2    0.000489   -0.000000
   -4    1    1    6    2   -0.000846   -0.000000
   -4    1    1    7    2   -0.004462    0.000000
   -4    1    1    8    2    0.004184    0.000002
   -4    1    1    9    2    0.010097   -0.000004
   -4    1    1   10    2    0.000027   -0.000000
   -4    1    1   11    2   -0.000527    0.000000
   -4    1    1   12    2   -0.000035    0.000000
   -4    1    1   13    2    0.000700   -0.000000
   -4    1    1   14    2   -0.002771   -0.000000
   -4    1    1   15    2   -0.002010    0.000000
   -4    1    1    1    3    0.000149   -0.000000
   -4    1    1    2    3    0.000402   -0.000000
   -4    1    1    3    3   -0.000220   -0.000000
   -4    1    1    4    3   -0.000486   -0.000000
   -4    1    1    5    3    0.004197   -0.000004
   -4    1    1    6    3   -0.000846   -0.000000
   -4    1    1    7    3    0.010098   -0.000001
   -4    1    1    8    3    0.004184    0.000002
   -4    1    1    9    3   -0.004462    0.000002
   -4    1    1   10    3    0.000027   -0.000000
   -4    1    1   11    3    0.000038   -0.000000
   -4    1    1   12    3    0.000524   -0.000000
   -4    1    1   13    3    0.002769   -0.000000
   -4    1    1   14    3   -0.000701    0.000000
   -4    1    1   15    3   -0.002010    0.000000
   -4    1    1    1    4   -0.000479    0.000000
   -4    1    1    2    4   -0.000412    0.000000
   -4    1    1    3    4    0.001746   -0.000001
   -4    1    1    4    4   -0.001145   -0.000000
   -4    1    1    5    4    0.000046   -0.000000
   -4    1    1    6    4    0.000001    0.000000
   -4    1    1    7    4    0.000085   -0.000000
   -4    1    1    8    4    0.000100    0.000000
   -4    1    1    9    4   -0.000530    0.000000
   -4    1    1   10    4   -0.000193    0.000000
   -4    1    1   11    4   -0.000333    0.000000
   -4    1    1   12    4   -0.000671    0.000000
   -4    1    1   13    4   -0.000928    0.000000
   -4    1    1   14    4    0.000073   -0.000000
   -4    1    1   15    4    0.000074   -0.000000
   -4    1    1    1    5    0.000479    0.000000
   -4    1    1    2    5   -0.001748   -0.000001
   -4    1    1    3    5    0.000412    0.000000
   -4    1    1    4    5    0.000046    0.000000
   -4    1    1    5    5   -0.001145    0.000000
   -4    1    1    6    5   -0.000001    0.000000
   -4    1    1    7    5    0.000531    0.000000
   -4    1    1    8    5   -0.000100   -0.000000
   -4    1    1    9    5   -0.000085   -0.000000
   -4    1    1   10    5    0.000193    0.000000
   -4    1    1   11    5   -0.000674   -0.000001
   -4    1    1   12    5   -0.000326   -0.000000
   -4    1    1   13    5    0.000073    0.000000
   -4    1    1   14    5   -0.000928   -0.000001
   -4    1    1   15    5   -0.000074   -0.000000
   -4    1    1    1    6    0.000243   -0.000000
   -4    1    1    2    6   -0.000421    0.000000
   -4    1    1    3    6   -0.000422    0.000000
   -4    1    1    4    6   -0.000335   -0.000000
   -4    1    1    5    6    0.000334   -0.000000
   -4    1    1    6    6    0.001044    0.000000
   -4    1    1    7    6    0.000121   -0.000000
   -4    1    1    8    6    0.000286    0.000000
   -4    1    1    9    6    0.000121   -0.000000
   -4    1    1   10    6    0.000996   -0.000000
   -4    1    1   11    6    0.000444   -0.000000
   -4    1    1   12    6   -0.000450    0.000000
   -4    1    1   13    6   -0.000343    0.000000
   -4    1    1   14    6    0.000343   -0.000000
   -4    1    1   15    6    0.000764   -0.000000
   -4    1    1    1    7   -0.000088   -0.000000
   -4    1    1    2    7    0.000048    0.000000
   -4    1    1    3    7    0.000660    0.000000
   -4    1    1    4    7    0.007283    0.000003
   -4    1    1    5    7    0.004383   -0.000003
   -4    1    1    6    7    0.004281    0.000001
   -4    1    1    7    7   -0.000954    0.000000
   -4    1    1    8    7    0.000187    0.000000
   -4    1    1    9    7    0.000559   -0.000000
   -4    1    1   10    7   -0.000284   -0.000000
   -4    1    1   11    7   -0.000227   -0.000000
   -4    1    1   12    7    0.000064    0.000000
   -4    1    1   13    7   -0.003267   -0.000000
   -4    1    1   14    7    0.003209    0.000000
   -4    1    1   15    7   -0.002086   -0.000000
   -4    1    1    1    8    0.000075   -0.000000
   -4    1    1    2    8   -0.000021    0.000000
   -4    1    1    3    8   -0.000021    0.000000
   -4    1    1    4    8    0.001189   -0.000000
   -4    1    1    5    8   -0.001190    0.000001
   -4    1    1    6    8   -0.004958    0.000001
   -4    1    1    7    8    0.000238   -0.000000
   -4    1    1    8    8    0.000723   -0.000000
   -4    1    1    9    8    0.000238   -0.000000
   -4    1    1   10    8   -0.000140    0.000000
   -4    1    1   11    8    0.000148   -0.000000
   -4    1    1   12    8   -0.000149    0.000000
   -4    1    1   13    8    0.001000   -0.000000
   -4    1    1   14    8   -0.001000    0.000000
   -4    1    1   15    8    0.000087   -0.000000
   -4    1    1    1    9   -0.000088   -0.000000
   -4    1    1    2    9    0.000660    0.000000
   -4    1    1    3    9    0.000048    0.000000
   -4    1    1    4    9   -0.004379   -0.000003
   -4    1    1    5    9   -0.007282    0.000003
   -4    1    1    6    9    0.004281    0.000003
   -4    1    1    7    9    0.000559    0.000000
   -4    1    1    8    9    0.000187    0.000000
   -4    1    1    9    9   -0.000954    0.000000
   -4    1    1   10    9   -0.000283   -0.000000
   -4    1    1   11    9   -0.000062   -0.000000
   -4    1    1   12    9    0.000228    0.000000
   -4    1    1   13    9   -0.003210   -0.000001
   -4    1    1   14    9    0.003267    0.000001
   -4    1    1   15    9   -0.002086   -0.000001
   -4    1    1    1   10    0.000954   -0.000000
   -4    1    1    2   10    0.000403    0.000000
   -4    1    1    3   10    0.000403    0.000000
   -4    1    1    4   10   -0.002222   -0.000001
   -4    1    1    5   10    0.002221   -0.000002
   -4    1    1    6   10   -0.005339   -0.000001
   -4    1    1    7   10    0.000330   -0.000000
   -4    1    1    8   10   -0.001975   -0.000001
   -4    1    1    9   10    0.000330   -0.000000
   -4    1    1   10   10    0.000701   -0.000000
   -4    1    1   11   10   -0.000319   -0.000000
   -4    1    1   12   10    0.000322   -0.000000
   -4    1    1   13   10   -0.002271    0.000000
   -4    1    1   14   10    0.002271    0.000000
   -4    1    1   15   10    0.001625    0.000000
   -4    1    1    1   11    0.000217   -0.000000
   -4    1    1    2   11    0.000189    0.000000
   -4    1    1    3   11    0.000655    0.000000
   -4    1    1    4   11   -0.000570   -0.000000
   -4    1    1    5   11   -0.004740    0.000004
   -4    1    1    6   11    0.003406    0.000001
   -4    1    1    7   11   -0.001413    0.000000
   -4    1    1    8   11    0.002840    0.000001
   -4    1    1    9   11   -0.001357    0.000000
   -4    1    1   10   11    0.000103   -0.000000
   -4    1    1   11   11   -0.000871   -0.000000
   -4    1    1   12   11    0.000066   -0.000000
   -4    1    1   13   11    0.000574   -0.000000
   -4    1    1   14   11   -0.002680   -0.000000
   -4    1    1   15   11    0.001783    0.000000
   -4    1    1    1   12   -0.000219   -0.000000
   -4    1    1    2   12   -0.000658   -0.000000
   -4    1    1    3   12   -0.000196   -0.000000
   -4    1    1    4   12   -0.004734   -0.000002
   -4    1    1    5   12   -0.000533    0.000000
   -4    1    1    6   12   -0.003446   -0.000001
   -4    1    1    7   12    0.001372   -0.000000
   -4    1    1    8   12   -0.002870   -0.000001
   -4    1    1    9   12    0.001430   -0.000000
   -4    1    1   10   12   -0.000104   -0.000000
   -4    1    1   11   12    0.000066    0.000000
   -4    1    1   12   12   -0.000872    0.000000
   -4    1    1   13   12   -0.002686    0.000000
   -4    1    1   14   12    0.000596    0.000000
   -4    1    1   15   12   -0.001804   -0.000000
   -4    1    1    1   13   -0.000190   -0.000000
   -4    1    1    2   13   -0.001425   -0.000000
   -4    1    1    3   13    0.000421    0.000000
   -4    1    1    4   13    0.000536    0.000000
   -4    1    1    5   13    0.000132   -0.000000
   -4    1    1    6   13    0.000053    0.000000
   -4    1    1    7   13    0.000229   -0.000000
   -4    1    1    8   13   -0.000071   -0.000000
   -4    1    1    9   13   -0.000424    0.000000
   -4    1    1   10   13   -0.000033   -0.000000
   -4    1    1   11   13   -0.000260   -0.000000
   -4    1    1   12   13   -0.000198   -0.000000
   -4    1    1   13   13   -0.000907    0.000000
   -4    1    1   14   13    0.000057    0.000000
   -4    1    1   15   13    0.000304    0.000000
   -4    1    1    1   14    0.000190   -0.000000
   -4    1    1    2   14   -0.000421    0.000000
   -4    1    1    3   14    0.001425    0.000000
   -4    1    1    4   14    0.000132    0.000000
   -4    1    1    5   14    0.000535   -0.000000
   -4    1    1    6   14   -0.000053   -0.000000
   -4    1    1    7   14    0.000424   -0.000000
   -4    1    1    8   14    0.000071    0.000000
   -4    1    1    9   14   -0.000229    0.000000
   -4    1    1   10   14    0.000033   -0.000000
   -4    1    1   11   14   -0.000200    0.000000
   -4    1    1   12   14   -0.000258    0.000000
   -4    1    1   13   14    0.000057   -0.000000
   -4    1    1   14   14   -0.000907   -0.000000
   -4    1    1   15   14   -0.000304    0.000000
   -4    1    1    1   15    0.000280   -0.000000
   -4    1    1    2   15    0.000125    0.000000
   -4    1    1    3   15    0.000125    0.000000
   -4    1    1    4   15   -0.000131   -0.000000
   -4    1    1    5   15    0.000131   -0.000000
   -4    1    1    6   15    0.000299    0.000000
   -4    1    1    7   15    0.000061   -0.000000
   -4    1    1    8   15    0.000289    0.000000
   -4    1    1    9   15    0.000061   -0.000000
   -4    1    1   10   15   -0.000254    0.000000
   -4    1    1   11   15   -0.000022   -0.000000
   -4    1    1   12   15    0.000023   -0.000000
   -4    1    1   13   15   -0.000130    0.000000
   -4    1    1   14   15    0.000130    0.000000
   -4    1    1   15   15    0.000920    0.000000
   -4    2    0    1    1    0.000809    0.000000
   -4    2    0    2    1    0.000255    0.000000
   -4    2    0    3    1   -0.000483   -0.000000
   -4    2    0    4    1   -0.001717   -0.000001
   -4    2    0    5    1   -0.015507    0.000012
   -4    2    0    6    1    0.003171    0.000001
   -4    2    0    7    1   -0.000265    0.000000
   -4    2    0    8    1    0.006044    0.000003
   -4    2    0    9    1   -0.000461    0.000000
   -4    2    0   10    1   -0.001065   -0.000000
   -4    2    0   11    1    0.000315    0.000000
   -4    2    0   12    1    0.000231   -0.000000
   -4    2    0   13    1   -0.003020    0.000000
   -4    2    0   14    1    0.002048    0.000000
   -4    2    0   15    1    0.003073    0.000000
   -4    2    0    1    2   -0.000346    0.000000
   -4    2    0    2    2    0.000160   -0.000000
   -4    2    0    3    2   -0.000451   -0.000000
   -4    2    0    4    2    0.004520    0.000002
   -4    2    0    5    2   -0.002395    0.000002
   -4    2    0    6    2   -0.000100   -0.000000
   -4    2    0    7    2    0.005669   -0.000000
   -4    2    0    8    2   -0.017730   -0.000008
   -4    2    0    9    2   -0.010366    0.000004
   -4    2    0   10    2   -0.000689    0.000000
   -4    2    0   11    2    0.000646   -0.000000
   -4    2    0   12    2   -0.000042    0.000000
   -4    2    0   13    2   -0.001564    0.000000
   -4    2    0   14    2    0.002845    0.000000
   -4    2    0   15    2   -0.004603    0.000000
   -4    2    0    1    3   -0.000414    0.000000
   -4    2    0    2    3    0.000352   -0.000000
   -4    2    0    3    3    0.000359   -0.000000
   -4    2    0    4    3   -0.005006   -0.000002
   -4    2    0    5    3   -0.003746    0.000003
   -4    2    0    6    3    0.015675    0.000003
   -4    2    0    7    3   -0.009305    0.000001
   -4    2    0    8    3   -0.015661   -0.000006
   -4    2    0    9    3    0.005615   -0.000002
   -4    2    0   10    3   -0.000318    0.000000
   -4    2    0   11    3    0.000077   -0.000000
   -4    2    0   12    3    0.000264   -0.000000
   -4    2    0   13    3   -0.006183    0.000001
   -4    2    0   14    3    0.001366   -0.000000
   -4    2    0   15    3   -0.007640    0.000001
   -4    2    0    1    4   -0.000582    0.000000
   -4    2    0    2    4    0.000253   -0.000000
   -4    2    0    3    4   -0.001344    0.000000
   -4    2    0    4    4    0.001452    0.000000
   -4    2    0    5    4   -0.000387    0.000000
   -4    2    0    6    4    0.000556   -0.000000
   -4    2    0    7    4   -0.000325    0.000000
   -4    2    0    8    4    0.000505    0.000000
   -4    2    0    9    4    0.000533   -0.000000
   -4    2    0   10    4   -0.000211    0.000000
   -4    2    0   11    4    0.000138   -0.000000
   -4    2    0   12    4    0.000649   -0.000000
   -4    2    0   13    4    0.001009   -0.000000
   -4    2    0   14    4   -0.000177    0.000000
   -4    2    0   15    4    0.000104   -0.000000
   -4    2    0    1    5    0.000357    0.000000
   -4    2    0    2    5    0.001182    0.000001
   -4    2    0    3    5    0.000161    0.000000
   -4    2    0    4    5   -0.000025   -0.000000
   -4    2    0    5    5    0.000853   -0.000000
   -4    2    0    6    5    0.000237    0.000000
   -4    2    0    7    5   -0.000459   -0.000000
   -4    2    0    8    5   -0.000066   -0.000000
   -4    2    0    9    5   -0.000114   -0.000000
   -4    2    0   10    5   -0.000275   -0.000000
   -4    2    0   11    5    0.000044    0.000000
   -4    2    0   12    5    0.000405    0.000000
   -4    2    0   13    5   -0.000005   -0.000000
   -4    2    0   14    5    0.000407    0.000000
   -4    2    0   15    5    0.000085    0.000000
   -4    2    0    1    6    0.000049   -0.000000
   -4    2    0    2    6   -0.002276    0.000001
   -4    2    0    3    6   -0.003497    0.000001
   -4    2    0    4    6    0.000218    0.000000
   -4    2    0    5    6    0.000372   -0.000000
   -4    2    0    6    6    0.000559    0.000000
   -4    2    0    7    6    0.000466   -0.000000
   -4    2    0    8    6    0.000331    0.000000
   -4    2    0    9    6    0.000504   -0.000000
   -4    2    0   10    6    0.000664   -0.000000
   -4    2    0   11    6   -0.000164    0.000000
   -4    2    0   12    6   -0.000417    0.000000
   -4    2    0   13    6    0.000299   -0.000000
   -4    2    0   14    6   -0.000079    0.000000
   -4    2    0   15    6    0.000338   -0.000000
   -4    2    0    1    7   -0.000721   -0.000000
   -4    2    0    2    7   -0.000037   -0.000000
   -4    2    0    3    7   -0.000880   -0.000000
   -4    2    0    4    7   -0.003299   -0.000001
   -4    2    0    5    7   -0.005545    0.000004
   -4    2    0    6    7    0.014488    0.000004
   -4    2    0    7    7    0.000841    0.000000
   -4    2    0    8    7   -0.001088   -0.000001
   -4    2    0    9    7   -0.000710    0.000000
   -4    2    0   10    7   -0.000416   -0.000000
   -4    2    0   11    7    0.000199    0.000000
   -4    2    0   12    7    0.000074    0.000000
   -4    2    0   13    7    0.004697    0.000000
   -4    2    0   14    7   -0.003123   -0.000000
   -4    2    0   15    7    0.003857    0.000000
   -4    2    0    1    8    0.000082   -0.000000
   -4    2    0    2    8   -0.000366    0.000000
   -4    2    0    3    8   -0.000405    0.000000
   -4    2    0    4    8    0.001048   -0.000000
   -4    2    0    5    8    0.000543   -0.000001
   -4    2    0    6    8   -0.008219    0.000001
   -4    2    0    7    8   -0.000042    0.000000
   -4    2    0    8    8    0.000600   -0.000000
   -4    2    0    9    8   -0.000511    0.000000
   -4    2    0   10    8    0.000036   -0.000000
   -4    2    0   11    8   -0.000123    0.000000
   -4    2    0   12    8   -0.000194    0.000000
   -4    2    0   13    8   -0.001206    0.000001
   -4    2    0   14    8    0.000893   -0.000000
   -4    2    0   15    8   -0.001813    0.000001
   -4    2    0    1    9   -0.000027   -0.000000
   -4    2    0    2    9   -0.000357   -0.000000
   -4    2    0    3    9   -0.000141   -0.000000
   -4    2    0    4    9    0.008313    0.000006
   -4    2    0    5    9    0.005985   -0.000003
   -4    2    0    6    9    0.014612    0.000009
   -4    2    0    7    9   -0.000500   -0.000000
   -4    2    0    8    9   -0.000822   -0.000001
   -4    2    0    9    9    0.000646    0.000000
   -4    2    0   10    9    0.000079    0.000000
   -4    2    0   11    9   -0.000039   -0.000000
   -4    2    0   12    9   -0.000216   -0.000000
   -4    2    0   13    9    0.002272    0.000001
   -4    2    0   14    9   -0.000495   -0.000000
   -4    2    0   15    9    0.003706    0.000001
   -4    2    0    1   10    0.000336   -0.000000
   -4    2    0    2   10    0.000227    0.000000
   -4    2    0    3   10    0.000036    0.000000
   -4    2    0    4   10   -0.000619   -0.000000
   -4    2    0    5   10    0.001189   -0.000001
   -4    2    0    6   10   -0.000588   -0.000000
   -4    2    0    7   10   -0.000366    0.000000
   -4    2    0    8   10   -0.000681   -0.000000
   -4    2    0    9   10    0.000639   -0.000000
   -4    2    0   10   10    0.000435   -0.000000
   -4    2    0   11   10   -0.000022   -0.000000
   -4    2    0   12   10    0.000201   -0.000000
   -4    2    0   13   10    0.001605   -0.000000
   -4    2    0   14   10   -0.001233   -0.000000
   -4    2    0   15   10    0.003863    0.000000
   -4    2    0    1   11    0.000125   -0.000000
   -4    2    0    2   11   -0.000155   -0.000000
   -4    2    0    3   11   -0.000276   -0.000000
   -4    2    0    4   11    0.002986    0.000001
   -4    2    0    5   11    0.002757   -0.000002
   -4    2    0    6   11    0.006489    0.000002
   -4    2    0    7   11    0.001160   -0.000000
   -4    2    0    8   11    0.003926    0.000002
   -4    2    0    9   11   -0.001523    0.000001
   -4    2    0   10   11   -0.000077    0.000000
   -4    2    0   11   11    0.000551   -0.000000
   -4    2    0   12   11   -0.000151    0.000000
   -4    2    0   13   11   -0.000470    0.000000
   -4    2    0   14   11    0.003894    0.000000
   -4    2    0   15   11    0.002898    0.000000
   -4    2    0    1   12   -0.000018    0.000000
   -4    2    0    2   12    0.000743    0.000000
   -4    2    0    3   12    0.000278    0.000000
   -4    2    0    4   12    0.004757    0.000002
   -4    2    0    5   12    0.004347   -0.000003
   -4    2    0    6   12   -0.005931   -0.000002
   -4    2    0    7   12   -0.002912    0.000000
   -4    2    0    8   12   -0.002914   -0.000001
   -4    2    0    9   12    0.000556   -0.000000
   -4    2    0   10   12   -0.000160    0.000000
   -4    2    0   11   12    0.000085    0.000000
   -4    2    0   12   12    0.000731   -0.000000
   -4    2    0   13   12    0.000525   -0.000000
   -4    2    0   14   12    0.000198    0.000000
   -4    2    0   15   12   -0.001486   -0.000000
   -4    2    0    1   13   -0.000544   -0.000000
   -4    2    0    2   13    0.001541    0.000000
   -4    2    0    3   13   -0.000481   -0.000000
   -4    2    0    4   13    0.000328    0.000000
   -4    2    0    5   13   -0.000233    0.000000
   -4    2    0    6   13    0.000263    0.000000
   -4    2    0    7   13   -0.000453    0.000000
   -4    2    0    8   13    0.000461    0.000000
   -4    2    0    9   13    0.000450   -0.000000
   -4    2    0   10   13   -0.000320   -0.000000
   -4    2    0   11   13    0.000233    0.000000
   -4    2    0   12   13    0.000734   -0.000000
   -4    2    0   13   13    0.001026   -0.000000
   -4    2    0   14   13   -0.000006    0.000000
   -4    2    0   15   13   -0.000041   -0.000000
   -4    2    0    1   14   -0.000279    0.000000
   -4    2    0    2   14    0.000171   -0.000000
   -4    2    0    3   14   -0.000622   -0.000000
   -4    2    0    4   14   -0.000141   -0.000000
   -4    2    0    5   14   -0.001039    0.000001
   -4    2    0    6   14    0.000107    0.000000
   -4    2    0    7   14   -0.000414    0.000000
   -4    2    0    8   14    0.000106    0.000000
   -4    2    0    9   14    0.000049   -0.000000
   -4    2    0   10   14   -0.000344    0.000000
   -4    2    0   11   14   -0.000186    0.000000
   -4    2    0   12   14    0.000270   -0.000000
   -4    2    0   13   14    0.000076   -0.000000
   -4    2    0   14   14    0.000409    0.000000
   -4    2    0   15   14   -0.000038   -0.000000
   -4    2    0    1   15    0.000066   -0.000000
   -4    2    0    2   15   -0.000149   -0.000000
   -4    2    0    3   15    0.000144    0.000000
   -4    2    0    4   15    0.000041    0.000000
   -4    2    0    5   15    0.000238   -0.000000
   -4    2    0    6   15    0.000052    0.000000
   -4    2    0    7   15    0.000171   -0.000000
   -4    2    0    8   15   -0.000045   -0.000000
   -4    2    0    9   15   -0.000139    0.000000
   -4    2    0   10   15   -0.000214    0.000000
   -4    2    0   11   15   -0.000171    0.000000
   -4    2    0   12   15   -0.000175    0.000000
   -4    2    0   13   15   -0.000037    0.000000
   -4    2    0   14   15    0.000009   -0.000000
   -4    2    0   15   15    0.000540   -0.000000
   -4    2    1    1    1    0.002881   -0.000000
   -4    2    1    2    1   -0.001790   -0.000000
   -4    2    1    3    1   -0.000127   -0.000000
   -4    2    1    4    1    0.001288    0.000001
   -4    2    1    5    1    0.000180   -0.000000
   -4    2    1    6    1   -0.001030   -0.000000
   -4    2    1    7    1    0.005162   -0.000000
   -4    2    1    8    1   -0.008679   -0.000004
   -4    2    1    9    1   -0.004948    0.000002
   -4    2    1   10    1    0.007658    0.000000
   -4    2    1   11    1    0.001166    0.000000
   -4    2    1   12    1   -0.000476    0.000000
   -4    2    1   13    1   -0.003555    0.000000
   -4    2    1   14    1   -0.000786   -0.000000
   -4    2    1   15    1   -0.000416   -0.000000
   -4    2    1    1    2    0.001123   -0.000000
   -4    2    1    2    2   -0.005755    0.000000
   -4    2    1    3    2    0.005053    0.000000
   -4    2    1    4    2    0.000420    0.000000
   -4    2    1    5    2   -0.002180    0.000002
   -4    2    1    6    2    0.001164    0.000000
   -4    2    1    7    2    0.024398   -0.000001
   -4    2    1    8    2   -0.002909   -0.000001
   -4    2    1    9    2   -0.002809    0.000001
   -4    2    1   10    2   -0.006168    0.000000
   -4    2    1   11    2    0.000454   -0.000000
   -4    2    1   12    2    0.001961   -0.000000
   -4    2    1   13    2    0.000654   -0.000000
   -4    2    1   14    2   -0.004064   -0.000000
   -4    2    1   15    2    0.000506   -0.000000
   -4    2    1    1    3   -0.008354    0.000001
   -4    2    1    2    3   -0.010554    0.000001
   -4    2    1    3    3    0.002357   -0.000000
   -4    2    1    4    3    0.000280    0.000000
   -4    2    1    5    3    0.001365   -0.000001
   -4    2    1    6    3   -0.003399   -0.000001
   -4    2    1    7    3    0.010560   -0.000001
   -4    2    1    8    3   -0.003580   -0.000001
   -4    2    1    9    3   -0.019358    0.000008
   -4    2    1   10    3   -0.008779    0.000001
   -4    2    1   11    3    0.003552   -0.000000
   -4    2    1   12    3   -0.001572    0.000000
   -4    2    1   13    3   -0.004601    0.000000
   -4    2    1   14    3    0.002458   -0.000000
   -4    2    1   15    3   -0.002012    0.000000
   -4    2    1    1    4    0.000036   -0.000000
   -4    2    1    2    4    0.000430   -0.000000
   -4    2    1    3    4    0.000150   -0.000000
   -4    2    1    4    4   -0.002552    0.000000
   -4    2    1    5    4   -0.000279    0.000000
   -4    2    1    6    4   -0.006552    0.000001
   -4    2    1    7    4    0.000710   -0.000000
   -4    2    1    8    4   -0.000481   -0.000000
   -4    2    1    9    4   -0.000601    0.000000
   -4    2    1   10    4    0.000107   -0.000000
   -4    2    1   11    4    0.000022   -0.000000
   -4    2    1   12    4    0.000111   -0.000000
   -4    2    1   13    4    0.004243   -0.000002
   -4    2    1   14    4   -0.000167    0.000000
   -4    2    1   15    4    0.000073   -0.000000
   -4    2    1    1    5    0.000144    0.000000
   -4    2    1    2    5   -0.000119   -0.000000
   -4    2    1    3    5    0.000120    0.000000
   -4    2    1    4    5    0.003639    0.000004
   -4    2    1    5    5    0.002390    0.000000
   -4    2    1    6    5    0.010110    0.000011
   -4    2    1    7    5    0.000013    0.000000
   -4    2    1    8    5   -0.000402   -0.000000
   -4    2    1    9    5    0.000877    0.000000
   -4    2    1   10    5   -0.000040   -0.000000
   -4    2    1   11    5    0.000045    0.000000
   -4    2    1   12    5   -0.000211   -0.000000
   -4    2    1   13    5    0.000957    0.000001
   -4    2    1   14    5   -0.002890   -0.000002
   -4    2    1   15    5    0.002470    0.000002
   -4    2    1    1    6   -0.000206    0.000000
   -4    2    1    2    6    0.000246   -0.000000
   -4    2    1    3    6    0.000244   -0.000000
   -4    2    1    4    6   -0.001653   -0.000000
   -4    2    1    5    6    0.000052   -0.000000
   -4    2    1    6    6    0.000655   -0.000000
   -4    2    1    7    6   -0.000165    0.000000
   -4    2    1    8    6   -0.001036   -0.000000
   -4    2    1    9    6    0.000367   -0.000000
   -4    2    1   10    6   -0.000151    0.000000
   -4    2    1   11    6    0.000018   -0.000000
   -4    2    1   12    6    0.000238   -0.000000
   -4    2    1   13    6    0.000538   -0.000000
   -4    2    1   14    6    0.001185   -0.000000
   -4    2    1   15    6   -0.001790    0.000000
   -4    2    1    1    7    0.000028   -0.000000
   -4    2    1    2    7   -0.000554   -0.000000
   -4    2    1    3    7    0.000217    0.000000
   -4    2    1    4    7   -0.012414   -0.000005
   -4    2    1    5    7    0.006206   -0.000005
   -4    2    1    6    7   -0.011461   -0.000004
   -4    2    1    7    7   -0.001941   -0.000000
   -4    2    1    8    7    0.000069    0.000000
   -4    2    1    9    7    0.006651   -0.000002
   -4    2    1   10    7    0.000043   -0.000000
   -4    2    1   11    7   -0.000202   -0.000000
   -4    2    1   12    7   -0.000751   -0.000000
   -4    2    1   13    7    0.000529    0.000000
   -4    2    1   14    7    0.001106    0.000000
   -4    2    1   15    7   -0.004557   -0.000000
   -4    2    1    1    8    0.000896   -0.000000
   -4    2    1    2    8    0.000568   -0.000000
   -4    2    1    3    8   -0.000405    0.000000
   -4    2    1    4    8    0.001136   -0.000000
   -4    2    1    5    8   -0.006109    0.000007
   -4    2    1    6    8    0.021077   -0.000004
   -4    2    1    7    8    0.000672   -0.000000
   -4    2    1    8    8    0.004634    0.000000
   -4    2    1    9    8   -0.000347    0.000000
   -4    2    1   10    8   -0.001415    0.000001
   -4    2    1   11    8    0.000107   -0.000000
   -4    2    1   12    8    0.000600   -0.000000
   -4    2    1   13    8   -0.001703    0.000001
   -4    2    1   14    8   -0.000614    0.000000
   -4    2    1   15    8    0.007981   -0.000004
   -4    2    1    1    9   -0.000399   -0.000000
   -4    2    1    2    9    0.000431    0.000000
   -4    2    1    3    9    0.001019    0.000000
   -4    2    1    4    9    0.001279    0.000001
   -4    2    1    5    9   -0.009695    0.000004
   -4    2    1    6    9    0.005386    0.000003
   -4    2    1    7    9   -0.005647   -0.000002
   -4    2    1    8    9   -0.012290   -0.000010
   -4    2    1    9    9    0.004170    0.000000
   -4    2    1   10    9   -0.000157   -0.000000
   -4    2    1   11    9   -0.000428   -0.000000
   -4    2    1   12    9    0.000406    0.000000
   -4    2    1   13    9   -0.002150   -0.000001
   -4    2    1   14    9    0.000095    0.000000
   -4    2    1   15    9   -0.003919   -0.000001
   -4    2    1    1   10   -0.002862    0.000000
   -4    2    1    2   10   -0.001483   -0.000000
   -4    2    1    3   10   -0.001404   -0.000000
   -4    2    1    4   10    0.004216    0.000002
   -4    2    1    5   10   -0.001444    0.000001
   -4    2    1    6   10   -0.001894   -0.000001
   -4    2    1    7   10    0.002039   -0.000000
   -4    2    1    8   10    0.000888    0.000000
   -4    2    1    9   10   -0.000828    0.000000
   -4    2    1   10   10    0.002160    0.000000
   -4    2    1   11   10   -0.000047    0.000000
   -4    2    1   12   10   -0.000710    0.000000
   -4    2    1   13   10    0.001079   -0.000000
   -4    2    1   14   10    0.002408    0.000000
   -4    2    1   15   10    0.007673    0.000000
   -4    2    1    1   11    0.002394   -0.000000
   -4    2    1    2   11    0.001637    0.000000
   -4    2    1    3   11    0.002021    0.000000
   -4    2    1    4   11   -0.000736   -0.000000
   -4    2    1    5   11   -0.000345    0.000000
   -4    2    1    6   11    0.001875    0.000001
   -4    2    1    7   11   -0.005140    0.000000
   -4    2    1    8   11   -0.003757   -0.000002
   -4    2    1    9   11    0.007421   -0.000002
   -4    2    1   10   11    0.004531   -0.000000
   -4    2    1   11   11    0.001116   -0.000000
   -4    2    1   12   11    0.000710   -0.000000
   -4    2    1   13   11   -0.000703    0.000000
   -4    2    1   14   11    0.007325    0.000000
   -4    2    1   15   11    0.000867    0.000000
   -4    2    1    1   12   -0.001301   -0.000000
   -4    2    1    2   12    0.002686    0.000000
   -4    2    1    3   12    0.000009    0.000000
   -4    2    1    4   12   -0.002377   -0.000001
   -4    2    1    5   12    0.000413   -0.000000
   -4    2    1    6   12   -0.000858   -0.000000
   -4    2    1    7   12    0.008216   -0.000000
   -4    2    1    8   12   -0.001134   -0.000001
   -4    2    1    9   12   -0.001832    0.000001
   -4    2    1   10   12   -0.003723   -0.000000
   -4    2    1   11   12   -0.000419   -0.000000
   -4    2    1   12   12    0.000118   -0.000000
   -4    2    1   13   12   -0.008110    0.000000
   -4    2    1   14   12   -0.001294   -0.000000
   -4    2    1   15   12    0.001056    0.000000
   -4    2    1    1   13   -0.000020   -0.000000
   -4    2    1    2   13    0.000570    0.000000
   -4    2    1    3   13    0.000018    0.000000
   -4    2    1    4   13   -0.005461   -0.000002
   -4    2    1    5   13   -0.005617    0.000004
   -4    2    1    6   13    0.004704    0.000001
   -4    2    1    7   13   -0.000400    0.000000
   -4    2    1    8   13   -0.000732   -0.000000
   -4    2    1    9   13   -0.000932    0.000000
   -4    2    1   10   13    0.000134    0.000000
   -4    2    1   11   13   -0.000035   -0.000000
   -4    2    1   12   13    0.000114    0.000000
   -4    2    1   13   13   -0.000175   -0.000000
   -4    2    1   14   13   -0.003481   -0.000000
   -4    2    1   15   13    0.003538    0.000000
   -4    2    1    1   14   -0.000026    0.000000
   -4    2    1    2   14   -0.000125    0.000000
   -4    2    1    3   14    0.000143    0.000000
   -4    2    1    4   14    0.007035    0.000002
   -4    2    1    5   14    0.006376   -0.000005
   -4    2    1    6   14    0.009534    0.000002
   -4    2    1    7   14   -0.000212    0.000000
   -4    2    1    8   14   -0.000138   -0.000000
   -4    2    1    9   14   -0.001185    0.000000
   -4    2    1   10   14   -0.000001   -0.000000
   -4    2    1   11   14    0.000038   -0.000000
   -4    2    1   12   14   -0.000206    0.000000
   -4    2    1   13   14    0.003578   -0.000000
   -4    2    1   14   14    0.001866    0.000000
   -4    2    1   15   14    0.004627   -0.000000
   -4    2    1    1   15    0.000072   -0.000000
   -4    2    1    2   15    0.000018    0.000000
   -4    2    1    3   15   -0.000017   -0.000000
   -4    2    1    4   15   -0.000935   -0.000000
   -4    2    1    5   15    0.001319   -0.000001
   -4    2    1    6   15   -0.004055   -0.000001
   -4    2    1    7   15    0.000016    0.000000
   -4    2    1    8   15   -0.000352   -0.000000
   -4    2    1    9   15    0.000074   -0.000000
   -4    2    1   10   15    0.000028   -0.000000
   -4    2    1   11   15    0.000083   -0.000000
   -4    2    1   12   15    0.000114   -0.000000
   -4    2    1   13   15    0.000439   -0.000000
   -4    2    1   14   15   -0.000019   -0.000000
   -4    2    1   15   15    0.001133   -0.000000
   -3   -3    3    1    1   -0.000337   -0.000000
   -3   -3    3    2    1    0.000210    0.000000
   -3   -3    3    3    1    0.000210    0.000000
   -3   -3    3    4    1    0.000669    0.000000
   -3   -3    3    5    1   -0.000669    0.000001
   -3   -3    3    6    1    0.006277    0.000002
   -3   -3    3    7    1    0.000399   -0.000000
   -3   -3    3    8    1   -0.000276   -0.000000
   -3   -3    3    9    1    0.000399   -0.000000
   -3   -3    3   10    1   -0.000029   -0.000000
   -3   -3    3   11    1   -0.000112   -0.000000
   -3   -3    3   12    1    0.000113    0.000000
   -3   -3    3   13    1    0.000326   -0.000000
   -3   -3    3   14    1   -0.000326   -0.000000
   -3   -3    3   15    1   -0.000834   -0.000000
   -3   -3    3    1    2    0.000210   -0.000000
   -3   -3    3    2    2   -0.000596   -0.000000
   -3   -3    3    3    2    0.000219    0.000000
   -3   -3    3    4    2    0.004810    0.000002
   -3   -3    3    5    2    0.004291   -0.000003
   -3   -3    3    6    2   -0.009739   -0.000002
   -3   -3    3    7    2    0.000775   -0.000000
   -3   -3    3    8    2    0.002246    0.000001
   -3   -3    3    9    2    0.001688   -0.000001
   -3   -3    3   10    2    0.000000   -0.000000
   -3   -3    3   11    2    0.000014    0.000000
   -3   -3    3   12    2   -0.000481    0.000000
   -3   -3    3   13    2   -0.000257    0.000000
   -3   -3    3   14    2    0.003252    0.000000
   -3   -3    3   15    2   -0.004760    0.000000
   -3   -3    3    1    3    0.000210   -0.000000
   -3   -3    3    2    3    0.000219   -0.000000
   -3   -3    3    3    3   -0.000597   -0.000000
   -3   -3    3    4    3   -0.004290   -0.000001
   -3   -3    3    5    3   -0.004810    0.000004
   -3   -3    3    6    3   -0.009739   -0.000002
   -3   -3    3    7    3    0.001688   -0.000000
   -3   -3    3    8    3    0.002246    0.000001
   -3   -3    3    9    3    0.000775   -0.000000
   -3   -3    3   10    3    0.000000   -0.000000
   -3   -3    3   11    3    0.000482   -0.000000
   -3   -3    3   12    3   -0.000017    0.000000
   -3   -3    3   13    3   -0.003253    0.000000
   -3   -3    3   14    3    0.000257   -0.000000
   -3   -3    3   15    3   -0.004760    0.000000
   -3   -3    3    1    4    0.000669   -0.000000
   -3   -3    3    2    4    0.004810   -0.000002
   -3   -3    3    3    4   -0.004290    0.000001
   -3   -3    3    4    4   -0.000336   -0.000000
   -3   -3    3    5    4   -0.000208    0.000000
   -3   -3    3    6    4    0.000230   -0.000000
   -3   -3    3    7    4    0.000138   -0.000000
   -3   -3    3    8    4   -0.000385   -0.000000
   -3   -3    3    9    4   -0.000920    0.000001
   -3   -3    3   10    4    0.000796   -0.000000
   -3   -3    3   11    4    0.000227   -0.000000
   -3   -3    3   12    4   -0.000613    0.000000
   -3   -3    3   13    4   -0.000039    0.000000
   -3   -3    3   14    4   -0.000122    0.000000
   -3   -3    3   15    4    0.000115   -0.000000
   -3   -3    3    1    5   -0.000669   -0.000001
   -3   -3    3    2    5    0.004291    0.000003
   -3   -3    3    3    5   -0.004810   -0.000004
   -3   -3    3    4    5   -0.000208   -0.000000
   -3   -3    3    5    5   -0.000336   -0.000000
   -3   -3    3    6    5   -0.000230   -0.000000
   -3   -3    3    7    5    0.000920    0.000001
   -3   -3    3    8    5    0.000385    0.000000
   -3   -3    3    9    5   -0.000138   -0.000000
   -3   -3    3   10    5   -0.000796   -0.000001
   -3   -3    3   11    5   -0.000610   -0.000000
   -3   -3    3   12    5    0.000234    0.000000
   -3   -3    3   13    5   -0.000122   -0.000000
   -3   -3    3   14    5   -0.000039   -0.000000
   -3   -3    3   15    5   -0.000115   -0.000000
   -3   -3    3    1    6    0.006277   -0.000002
   -3   -3    3    2    6   -0.009739    0.000002
   -3   -3    3    3    6   -0.009739    0.000002
   -3   -3    3    4    6    0.000230    0.000000
   -3   -3    3    5    6   -0.000230    0.000000
   -3   -3    3    6    6   -0.000594   -0.000000
   -3   -3    3    7    6   -0.002180    0.000001
   -3   -3    3    8    6   -0.000694   -0.000000
   -3   -3    3    9    6   -0.002180    0.000001
   -3   -3    3   10    6    0.000444   -0.000000
   -3   -3    3   11    6    0.003869   -0.000001
   -3   -3    3   12    6   -0.003908    0.000001
   -3   -3    3   13    6    0.000014   -0.000000
   -3   -3    3   14    6   -0.000014    0.000000
   -3   -3    3   15    6   -0.000498    0.000000
   -3   -3    3    1    7    0.000399    0.000000
   -3   -3    3    2    7    0.000775    0.000000
   -3   -3    3    3    7    0.001688    0.000000
   -3   -3    3    4    7    0.000138    0.000000
   -3   -3    3    5    7    0.000920   -0.000001
   -3   -3    3    6    7   -0.002180   -0.000001
   -3   -3    3    7    7   -0.000686    0.000000
   -3   -3    3    8    7   -0.000106   -0.000000
   -3   -3    3    9    7   -0.000075    0.000000
   -3   -3    3   10    7    0.000153    0.000000
   -3   -3    3   11    7   -0.000256   -0.000000
   -3   -3    3   12    7    0.000315    0.000000
   -3   -3    3   13    7   -0.000751   -0.000000
   -3   -3    3   14    7    0.000473    0.000000
   -3   -3    3   15    7   -0.000603   -0.000000
   -3   -3    3    1    8   -0.000276    0.000000
   -3   -3    3    2    8    0.002246   -0.000001
   -3   -3    3    3    8    0.002246   -0.000001
   -3   -3    3    4    8   -0.000385    0.000000
   -3   -3    3    5    8    0.000385   -0.000000
   -3   -3    3    6    8   -0.000694    0.000000
   -3   -3    3    7    8   -0.000106    0.000000
   -3   -3    3    8    8   -0.000698    0.000000
   -3   -3    3    9    8   -0.000106    0.000000
   -3   -3    3   10    8    0.000732   -0.000000
   -3   -3    3   11    8   -0.000626    0.000000
   -3   -3    3   12    8    0.000633   -0.000000
   -3   -3    3   13    8   -0.000124    0.000000
   -3   -3    3   14    8    0.000124   -0.000000
   -3   -3    3   15    8   -0.000337    0.000000
   -3   -3    3    1    9    0.000399    0.000000
   -3   -3    3    2    9    0.001688    0.000001
   -3   -3    3    3    9    0.000775    0.000000
   -3   -3    3    4    9   -0.000920   -0.000001
   -3   -3    3    5    9   -0.000138    0.000000
   -3   -3    3    6    9   -0.002180   -0.000001
   -3   -3    3    7    9   -0.000075   -0.000000
   -3   -3    3    8    9   -0.000106   -0.000000
   -3   -3    3    9    9   -0.000686    0.000000
   -3   -3    3   10    9    0.000153    0.000000
   -3   -3    3   11    9   -0.000313   -0.000000
   -3   -3    3   12    9    0.000258    0.000000
   -3   -3    3   13    9   -0.000473   -0.000000
   -3   -3    3   14    9    0.000751    0.000000
   -3   -3    3   15    9   -0.000603   -0.000000
   -3   -3    3    1   10   -0.000029    0.000000
   -3   -3    3    2   10    0.000000    0.000000
   -3   -3    3    3   10    0.000000    0.000000
   -3   -3    3    4   10    0.000796    0.000000
   -3   -3    3    5   10   -0.000796    0.000001
   -3   -3    3    6   10    0.000444    0.000000
   -3   -3    3    7   10    0.000153   -0.000000
   -3   -3    3    8   10    0.000732    0.000000
   -3   -3    3    9   10    0.000153   -0.000000
   -3   -3    3   10   10   -0.000405    0.000000
   -3   -3    3   11   10    0.000030   -0.000000
   -3   -3    3   12   10   -0.000030    0.000000
   -3   -3    3   13   10    0.000270   -0.000000
   -3   -3    3   14   10   -0.000270   -0.000000
   -3   -3    3   15   10    0.000672    0.000000
   -3   -3    3    1   11   -0.000112    0.000000
   -3   -3    3    2   11    0.000014   -0.000000
   -3   -3    3    3   11    0.000482    0.000000
   -3   -3    3    4   11    0.000227    0.000000
   -3   -3    3    5   11   -0.000610    0.000000
   -3   -3    3    6   11    0.003869    0.000001
   -3   -3    3    7   11   -0.000256    0.000000
   -3   -3    3    8   11   -0.000626   -0.000000
   -3   -3    3    9   11   -0.000313    0.000000
   -3   -3    3   10   11    0.000030    0.000000
   -3   -3    3   11   11   -0.000499    0.000000
   -3   -3    3   12   11    0.000094   -0.000000
   -3   -3    3   13   11    0.000024    0.000000
   -3   -3    3   14   11    0.000648    0.000000
   -3   -3    3   15   11    0.000263    0.000000
   -3   -3    3    1   12    0.000113   -0.000000
   -3   -3    3    2   12   -0.000481   -0.000000
   -3   -3    3    3   12   -0.000017   -0.000000
   -3   -3    3    4   12   -0.000613   -0.000000
   -3   -3    3    5   12    0.000234   -0.000000
   -3   -3    3    6   12   -0.003908   -0.000001
   -3   -3    3    7   12    0.000315   -0.000000
   -3   -3    3    8   12    0.000633    0.000000
   -3   -3    3    9   12    0.000258   -0.000000
   -3   -3    3   10   12   -0.000030   -0.000000
   -3   -3    3   11   12    0.000094    0.000000
   -3   -3    3   12   12   -0.000501    0.000000
   -3   -3    3   13   12    0.000648   -0.000000
   -3   -3    3   14   12    0.000018    0.000000
   -3   -3    3   15   12   -0.000266   -0.000000
   -3   -3    3    1   13    0.000326    0.000000
   -3   -3    3    2   13   -0.000257   -0.000000
   -3   -3    3    3   13   -0.003253   -0.000000
   -3   -3    3    4   13   -0.000039   -0.000000
   -3   -3    3    5   13   -0.000122    0.000000
   -3   -3    3    6   13    0.000014    0.000000
   -3   -3    3    7   13   -0.000751    0.000000
   -3   -3    3    8   13   -0.000124   -0.000000
   -3   -3    3    9   13   -0.000473    0.000000
   -3   -3    3   10   13    0.000270    0.000000
   -3   -3    3   11   13    0.000024   -0.000000
   -3   -3    3   12   13    0.000648    0.000000
   -3   -3    3   13   13   -0.000422    0.000000
   -3   -3    3   14   13   -0.000007   -0.000000
   -3   -3    3   15   13   -0.000054   -0.000000
   -3   -3    3    1   14   -0.000326    0.000000
   -3   -3    3    2   14    0.003252   -0.000000
   -3   -3    3    3   14    0.000257    0.000000
   -3   -3    3    4   14   -0.000122   -0.000000
   -3   -3    3    5   14   -0.000039    0.000000
   -3   -3    3    6   14   -0.000014   -0.000000
   -3   -3    3    7   14    0.000473   -0.000000
   -3   -3    3    8   14    0.000124    0.000000
   -3   -3    3    9   14    0.000751   -0.000000
   -3   -3    3   10   14   -0.000270    0.000000
   -3   -3    3   11   14    0.000648   -0.000000
   -3   -3    3   12   14    0.000018   -0.000000
   -3   -3    3   13   14   -0.000007    0.000000
   -3   -3    3   14   14   -0.000422    0.000000
   -3   -3    3   15   14    0.000054   -0.000000
   -3   -3    3    1   15   -0.000834    0.000000
   -3   -3    3    2   15   -0.004760   -0.000000
   -3   -3    3    3   15   -0.004760   -0.000000
   -3   -3    3    4   15    0.000115    0.000000
   -3   -3    3    5   15   -0.000115    0.000000
   -3   -3    3    6   15   -0.000498   -0.000000
   -3   -3    3    7   15   -0.000603    0.000000
   -3   -3    3    8   15   -0.000337   -0.000000
   -3   -3    3    9   15   -0.000603    0.000000
   -3   -3    3   10   15    0.000672   -0.000000
   -3   -3    3   11   15    0.000263   -0.000000
   -3   -3    3   12   15   -0.000266    0.000000
   -3   -3    3   13   15   -0.000054    0.000000
   -3   -3    3   14   15    0.000054    0.000000
   -3   -3    3   15   15   -0.000524    0.000000
   -3   -2    2    1    1   -0.000506   -0.000000
   -3   -2    2    2    1   -0.000179   -0.000000
   -3   -2    2    3    1   -0.000054   -0.000000
   -3   -2    2    4    1    0.007116    0.000003
   -3   -2    2    5    1    0.000683   -0.000001
   -3   -2    2    6    1    0.009556    0.000003
   -3   -2    2    7    1    0.000336   -0.000000
   -3   -2    2    8    1   -0.000128   -0.000000
   -3   -2    2    9    1    0.000165   -0.000000
   -3   -2    2   10    1    0.000035    0.000000
   -3   -2    2   11    1   -0.000234   -0.000000
   -3   -2    2   12    1   -0.000212    0.000000
   -3   -2    2   13    1    0.000110   -0.000000
   -3   -2    2   14    1   -0.000935   -0.000000
   -3   -2    2   15    1    0.002133    0.000000
   -3   -2    2    1    2   -0.000054    0.000000
   -3   -2    2    2    2    0.000591   -0.000000
   -3   -2    2    3    2   -0.000151   -0.000000
   -3   -2    2    4    2   -0.010390   -0.000004
   -3   -2    2    5    2   -0.001781    0.000001
   -3   -2    2    6    2    0.006380    0.000002
   -3   -2    2    7    2   -0.000962    0.000000
   -3   -2    2    8    2   -0.000803   -0.000000
   -3   -2    2    9    2   -0.000612    0.000000
   -3   -2    2   10    2    0.000361   -0.000000
   -3   -2    2   11    2    0.000084   -0.000000
   -3   -2    2   12    2    0.000246   -0.000000
   -3   -2    2   13    2   -0.000772    0.000000
   -3   -2    2   14    2   -0.004631   -0.000000
   -3   -2    2   15    2    0.002797   -0.000000
   -3   -2    2    1    3   -0.000179    0.000000
   -3   -2    2    2    3   -0.000266    0.000000
   -3   -2    2    3    3    0.000591   -0.000000
   -3   -2    2    4    3    0.003384    0.000001
   -3   -2    2    5    3    0.006789   -0.000006
   -3   -2    2    6    3   -0.000166   -0.000000
   -3   -2    2    7    3   -0.001980    0.000000
   -3   -2    2    8    3   -0.001509   -0.000001
   -3   -2    2    9    3   -0.000550    0.000000
   -3   -2    2   10    3   -0.000003    0.000000
   -3   -2    2   11    3   -0.000468    0.000000
   -3   -2    2   12    3   -0.000039    0.000000
   -3   -2    2   13    3    0.006107   -0.000001
   -3   -2    2   14    3   -0.000610    0.000000
   -3   -2    2   15    3    0.004315   -0.000000
   -3   -2    2    1    4   -0.000682    0.000000
   -3   -2    2    2    4   -0.006789    0.000002
   -3   -2    2    3    4    0.001775   -0.000001
   -3   -2    2    4    4    0.000400    0.000000
   -3   -2    2    5    4    0.000167   -0.000000
   -3   -2    2    6    4    0.000017   -0.000000
   -3   -2    2    7    4   -0.000577    0.000000
   -3   -2    2    8    4    0.000556    0.000000
   -3   -2    2    9    4    0.000644   -0.000000
   -3   -2    2   10    4   -0.001049    0.000000
   -3   -2    2   11    4   -0.001538    0.000001
   -3   -2    2   12    4    0.000412   -0.000000
   -3   -2    2   13    4    0.000173   -0.000000
   -3   -2    2   14    4    0.000171   -0.000000
   -3   -2    2   15    4   -0.000058    0.000000
   -3   -2    2    1    5   -0.007116   -0.000005
   -3   -2    2    2    5   -0.003388   -0.000003
   -3   -2    2    3    5    0.010389    0.000009
   -3   -2    2    4    5    0.000295    0.000000
   -3   -2    2    5    5    0.000400    0.000000
   -3   -2    2    6    5    0.000007    0.000000
   -3   -2    2    7    5   -0.000427   -0.000000
   -3   -2    2    8    5   -0.000327   -0.000000
   -3   -2    2    9    5    0.000006    0.000000
   -3   -2    2   10    5    0.001663    0.000001
   -3   -2    2   11    5   -0.003761   -0.000003
   -3   -2    2   12    5   -0.000065   -0.000000
   -3   -2    2   13    5    0.000263    0.000000
   -3   -2    2   14    5   -0.000067   -0.000000
   -3   -2    2   15    5   -0.000150   -0.000000
   -3   -2    2    1    6    0.009557   -0.000003
   -3   -2    2    2    6   -0.000166    0.000000
   -3   -2    2    3    6    0.006380   -0.000001
   -3   -2    2    4    6   -0.000008   -0.000000
   -3   -2    2    5    6   -0.000017    0.000000
   -3   -2    2    6    6   -0.000757   -0.000000
   -3   -2    2    7    6   -0.000559    0.000000
   -3   -2    2    8    6   -0.000644   -0.000000
   -3   -2    2    9    6   -0.001328    0.000001
   -3   -2    2   10    6    0.001261   -0.000000
   -3   -2    2   11    6    0.004317   -0.000001
   -3   -2    2   12    6   -0.003306    0.000001
   -3   -2    2   13    6    0.000146   -0.000000
   -3   -2    2   14    6    0.000488   -0.000000
   -3   -2    2   15    6   -0.000228    0.000000
   -3   -2    2    1    7    0.000165    0.000000
   -3   -2    2    2    7   -0.000550   -0.000000
   -3   -2    2    3    7   -0.000612   -0.000000
   -3   -2    2    4    7   -0.000006   -0.000000
   -3   -2    2    5    7   -0.000645    0.000000
   -3   -2    2    6    7   -0.001328   -0.000000
   -3   -2    2    7    7    0.000485   -0.000000
   -3   -2    2    8    7    0.000059    0.000000
   -3   -2    2    9    7   -0.000090    0.000000
   -3   -2    2   10    7   -0.000049   -0.000000
   -3   -2    2   11    7   -0.000049   -0.000000
   -3   -2    2   12    7    0.000115   -0.000000
   -3   -2    2   13    7    0.001064    0.000000
   -3   -2    2   14    7   -0.000494   -0.000000
   -3   -2    2   15    7    0.000017    0.000000
   -3   -2    2    1    8   -0.000128    0.000000
   -3   -2    2    2    8   -0.001509    0.000001
   -3   -2    2    3    8   -0.000803    0.000000
   -3   -2    2    4    8    0.000327   -0.000000
   -3   -2    2    5    8   -0.000555    0.000001
   -3   -2    2    6    8   -0.000644    0.000000
   -3   -2    2    7    8    0.000025   -0.000000
   -3   -2    2    8    8   -0.000300    0.000000
   -3   -2    2    9    8    0.000059   -0.000000
   -3   -2    2   10    8    0.000223   -0.000000
   -3   -2    2   11    8   -0.000051    0.000000
   -3   -2    2   12    8    0.000262   -0.000000
   -3   -2    2   13    8    0.000024   -0.000000
   -3   -2    2   14    8   -0.000001    0.000000
   -3   -2    2   15    8   -0.000021    0.000000
   -3   -2    2    1    9    0.000336    0.000000
   -3   -2    2    2    9   -0.001980   -0.000001
   -3   -2    2    3    9   -0.000962   -0.000000
   -3   -2    2    4    9    0.000427    0.000000
   -3   -2    2    5    9    0.000577   -0.000000
   -3   -2    2    6    9   -0.000559   -0.000000
   -3   -2    2    7    9   -0.000194   -0.000000
   -3   -2    2    8    9    0.000025    0.000000
   -3   -2    2    9    9    0.000485   -0.000000
   -3   -2    2   10    9    0.000002   -0.000000
   -3   -2    2   11    9    0.000567    0.000000
   -3   -2    2   12    9   -0.000397   -0.000000
   -3   -2    2   13    9    0.000068    0.000000
   -3   -2    2   14    9    0.000070    0.000000
   -3   -2    2   15    9    0.000310    0.000000
   -3   -2    2    1   10    0.000035   -0.000000
   -3   -2    2    2   10   -0.000003   -0.000000
   -3   -2    2    3   10    0.000361    0.000000
   -3   -2    2    4   10   -0.001664   -0.000001
   -3   -2    2    5   10    0.001049   -0.000001
   -3   -2    2    6   10    0.001261    0.000000
   -3   -2    2    7   10    0.000002    0.000000
   -3   -2    2    8   10    0.000223    0.000000
   -3   -2    2    9   10   -0.000049    0.000000
   -3   -2    2   10   10   -0.000166    0.000000
   -3   -2    2   11   10   -0.000184   -0.000000
   -3   -2    2   12   10   -0.000055    0.000000
   -3   -2    2   13   10   -0.000029    0.000000
   -3   -2    2   14   10   -0.000088   -0.000000
   -3   -2    2   15   10    0.000621    0.000000
   -3   -2    2    1   11    0.000214   -0.000000
   -3   -2    2    2   11    0.000043    0.000000
   -3   -2    2    3   11   -0.000247   -0.000000
   -3   -2    2    4   11   -0.000104   -0.000000
   -3   -2    2    5   11    0.000397   -0.000000
   -3   -2    2    6   11    0.003262    0.000001
   -3   -2    2    7   11    0.000391   -0.000000
   -3   -2    2    8   11   -0.000262   -0.000000
   -3   -2    2    9   11   -0.000115    0.000000
   -3   -2    2   10   11    0.000057   -0.000000
   -3   -2    2   11   11    0.000374   -0.000000
   -3   -2    2   12   11   -0.000091   -0.000000
   -3   -2    2   13   11   -0.000060    0.000000
   -3   -2    2   14   11    0.000358    0.000000
   -3   -2    2   15   11    0.000009   -0.000000
   -3   -2    2    1   12    0.000231    0.000000
   -3   -2    2    2   12    0.000467    0.000000
   -3   -2    2    3   12   -0.000082   -0.000000
   -3   -2    2    4   12   -0.003759   -0.000002
   -3   -2    2    5   12   -0.001545    0.000001
   -3   -2    2    6   12   -0.004350   -0.000001
   -3   -2    2    7   12   -0.000571    0.000000
   -3   -2    2    8   12    0.000054    0.000000
   -3   -2    2    9   12    0.000051   -0.000000
   -3   -2    2   10   12    0.000184    0.000000
   -3   -2    2   11   12    0.000073   -0.000000
   -3   -2    2   12   12    0.000374   -0.000000
   -3   -2    2   13   12   -0.001129   -0.000000
   -3   -2    2   14   12   -0.000217   -0.000000
   -3   -2    2   15   12    0.000055    0.000000
   -3   -2    2    1   13    0.000935    0.000000
   -3   -2    2    2   13    0.000610    0.000000
   -3   -2    2    3   13    0.004631    0.000000
   -3   -2    2    4   13   -0.000067   -0.000000
   -3   -2    2    5   13    0.000171   -0.000000
   -3   -2    2    6   13   -0.000488   -0.000000
   -3   -2    2    7   13   -0.000070    0.000000
   -3   -2    2    8   13    0.000001   -0.000000
   -3   -2    2    9   13    0.000494   -0.000000
   -3   -2    2   10   13    0.000088    0.000000
   -3   -2    2   11   13   -0.000213   -0.000000
   -3   -2    2   12   13    0.000360   -0.000000
   -3   -2    2   13   13    0.000337    0.000000
   -3   -2    2   14   13   -0.000025   -0.000000
   -3   -2    2   15   13   -0.000170   -0.000000
   -3   -2    2    1   14   -0.000110    0.000000
   -3   -2    2    2   14   -0.006107    0.000000
   -3   -2    2    3   14    0.000772    0.000000
   -3   -2    2    4   14    0.000263    0.000000
   -3   -2    2    5   14    0.000173   -0.000000
   -3   -2    2    6   14   -0.000146   -0.000000
   -3   -2    2    7   14   -0.000068    0.000000
   -3   -2    2    8   14   -0.000024   -0.000000
   -3   -2    2    9   14   -0.001064    0.000000
   -3   -2    2   10   14    0.000029    0.000000
   -3   -2    2   11   14   -0.001130    0.000000
   -3   -2    2   12   14   -0.000049    0.000000
   -3   -2    2   13   14    0.000167   -0.000000
   -3   -2    2   14   14    0.000337   -0.000000
   -3   -2    2   15   14   -0.000061    0.000000
   -3   -2    2    1   15    0.002133   -0.000000
   -3   -2    2    2   15    0.004315    0.000000
   -3   -2    2    3   15    0.002797    0.000000
   -3   -2    2    4   15    0.000150    0.000000
   -3   -2    2    5   15    0.000058   -0.000000
   -3   -2    2    6   15   -0.000228   -0.000000
   -3   -2    2    7   15    0.000310   -0.000000
   -3   -2    2    8   15   -0.000021   -0.000000
   -3   -2    2    9   15    0.000017   -0.000000
   -3   -2    2   10   15    0.000621   -0.000000
   -3   -2    2   11   15   -0.000055    0.000000
   -3   -2    2   12   15   -0.000009    0.000000
   -3   -2    2   13   15    0.000061   -0.000000
   -3   -2    2   14   15    0.000170    0.000000
   -3   -2    2   15   15   -0.000303    0.000000
   -3   -2    3    1    1   -0.000330    0.000000
   -3   -2    3    2    1    0.000023    0.000000
   -3   -2    3    3    1   -0.000190   -0.000000
   -3   -2    3    4    1   -0.002319   -0.000001
   -3   -2    3    5    1   -0.002857    0.000002
   -3   -2    3    6    1   -0.009442   -0.000003
   -3   -2    3    7    1   -0.000984    0.000000
   -3   -2    3    8    1   -0.004991   -0.000002
   -3   -2    3    9    1    0.000116   -0.000000
   -3   -2    3   10    1   -0.000733   -0.000000
   -3   -2    3   11    1   -0.000273   -0.000000
   -3   -2    3   12    1    0.000268   -0.000000
   -3   -2    3   13    1    0.000568   -0.000000
   -3   -2    3   14    1   -0.001927   -0.000000
   -3   -2    3   15    1   -0.001470   -0.000000
   -3   -2    3    1    2    0.001010   -0.000000
   -3   -2    3    2    2    0.000806   -0.000000
   -3   -2    3    3    2    0.000611    0.000000
   -3   -2    3    4    2   -0.009664   -0.000003
   -3   -2    3    5    2   -0.002931    0.000002
   -3   -2    3    6    2   -0.010646   -0.000003
   -3   -2    3    7    2   -0.008462    0.000000
   -3   -2    3    8    2    0.008268    0.000004
   -3   -2    3    9    2    0.007714   -0.000003
   -3   -2    3   10    2    0.000947   -0.000000
   -3   -2    3   11    2   -0.000796    0.000000
   -3   -2    3   12    2    0.000532   -0.000000
   -3   -2    3   13    2    0.005358   -0.000000
   -3   -2    3   14    2   -0.002226   -0.000000
   -3   -2    3   15    2    0.003240   -0.000000
   -3   -2    3    1    3   -0.000487    0.000000
   -3   -2    3    2    3   -0.000878    0.000000
   -3   -2    3    3    3   -0.000931    0.000000
   -3   -2    3    4    3    0.005563    0.000002
   -3   -2    3    5    3   -0.016151    0.000014
   -3   -2    3    6    3    0.005668    0.000001
   -3   -2    3    7    3   -0.008546    0.000001
   -3   -2    3    8    3   -0.001895   -0.000001
   -3   -2    3    9    3    0.007533   -0.000003
   -3   -2    3   10    3   -0.001168    0.000000
   -3   -2    3   11    3    0.000862   -0.000000
   -3   -2    3   12    3   -0.001278    0.000000
   -3   -2    3   13    3   -0.001428    0.000000
   -3   -2    3   14    3    0.005400   -0.000000
   -3   -2    3   15    3    0.001473   -0.000000
   -3   -2    3    1    4    0.000224   -0.000000
   -3   -2    3    2    4    0.000000   -0.000000
   -3   -2    3    3    4    0.000781   -0.000000
   -3   -2    3    4    4   -0.000200    0.000000
   -3   -2    3    5    4   -0.000332    0.000000
   -3   -2    3    6    4    0.001216   -0.000000
   -3   -2    3    7    4    0.000376   -0.000000
   -3   -2    3    8    4   -0.000062   -0.000000
   -3   -2    3    9    4    0.000062   -0.000000
   -3   -2    3   10    4   -0.000070    0.000000
   -3   -2    3   11    4   -0.000131    0.000000
   -3   -2    3   12    4    0.000064   -0.000000
   -3   -2    3   13    4    0.000620   -0.000000
   -3   -2    3   14    4   -0.000291    0.000000
   -3   -2    3   15    4    0.000309   -0.000000
   -3   -2    3    1    5   -0.000157   -0.000000
   -3   -2    3    2    5    0.000611    0.000000
   -3   -2    3    3    5   -0.000057   -0.000000
   -3   -2    3    4    5    0.000478    0.000001
   -3   -2    3    5    5    0.000436   -0.000000
   -3   -2    3    6    5   -0.000258   -0.000000
   -3   -2    3    7    5    0.000059    0.000000
   -3   -2    3    8    5    0.000156    0.000000
   -3   -2    3    9    5    0.000529    0.000000
   -3   -2    3   10    5   -0.000238   -0.000000
   -3   -2    3   11    5    0.000314    0.000000
   -3   -2    3   12    5   -0.000034   -0.000000
   -3   -2    3   13    5    0.000255    0.000000
   -3   -2    3   14    5   -0.000133   -0.000000
   -3   -2    3   15    5    0.000209    0.000000
   -3   -2    3    1    6    0.000162   -0.000000
   -3   -2    3    2    6   -0.000860    0.000000
   -3   -2    3    3    6    0.000074   -0.000000
   -3   -2    3    4    6    0.000031    0.000000
   -3   -2    3    5    6   -0.000094    0.000000
   -3   -2    3    6    6    0.001067   -0.000000
   -3   -2    3    7    6   -0.000168    0.000000
   -3   -2    3    8    6    0.000558    0.000000
   -3   -2    3    9    6    0.000099   -0.000000
   -3   -2    3   10    6   -0.000630    0.000000
   -3   -2    3   11    6    0.000292   -0.000000
   -3   -2    3   12    6   -0.000767    0.000000
   -3   -2    3   13    6    0.000088   -0.000000
   -3   -2    3   14    6   -0.000127    0.000000
   -3   -2    3   15    6    0.000828   -0.000000
   -3   -2    3    1    7    0.000073    0.000000
   -3   -2    3    2    7   -0.000549   -0.000000
   -3   -2    3    3    7    0.000188    0.000000
   -3   -2    3    4    7    0.003958    0.000002
   -3   -2    3    5    7    0.005159   -0.000004
   -3   -2    3    6    7   -0.010445   -0.000003
   -3   -2    3    7    7    0.000310    0.000000
   -3   -2    3    8    7    0.002031    0.000001
   -3   -2    3    9    7    0.000329   -0.000000
   -3   -2    3   10    7   -0.000241   -0.000000
   -3   -2    3   11    7   -0.000102   -0.000000
   -3   -2    3   12    7   -0.000466   -0.000000
   -3   -2    3   13    7    0.001495    0.000000
   -3   -2    3   14    7    0.002942    0.000000
   -3   -2    3   15    7   -0.001695   -0.000000
   -3   -2    3    1    8   -0.000343    0.000000
   -3   -2    3    2    8    0.000171   -0.000000
   -3   -2    3    3    8    0.000125   -0.000000
   -3   -2    3    4    8    0.000204   -0.000000
   -3   -2    3    5    8    0.000354   -0.000000
   -3   -2    3    6    8    0.006866   -0.000001
   -3   -2    3    7    8    0.000752   -0.000000
   -3   -2    3    8    8    0.000287    0.000000
   -3   -2    3    9    8   -0.000387    0.000000
   -3   -2    3   10    8   -0.000105    0.000000
   -3   -2    3   11    8   -0.000200    0.000000
   -3   -2    3   12    8   -0.000128    0.000000
   -3   -2    3   13    8    0.001605   -0.000001
   -3   -2    3   14    8    0.000310   -0.000000
   -3   -2    3   15    8    0.001432   -0.000001
   -3   -2    3    1    9   -0.000263   -0.000000
   -3   -2    3    2    9   -0.000299   -0.000000
   -3   -2    3    3    9    0.000492    0.000000
   -3   -2    3    4    9    0.003169    0.000002
   -3   -2    3    5    9    0.002889   -0.000001
   -3   -2    3    6    9   -0.002916   -0.000002
   -3   -2    3    7    9   -0.001309   -0.000000
   -3   -2    3    8    9   -0.000557   -0.000000
   -3   -2    3    9    9   -0.000220   -0.000000
   -3   -2    3   10    9    0.000166    0.000000
   -3   -2    3   11    9   -0.000364   -0.000000
   -3   -2    3   12    9    0.000087    0.000000
   -3   -2    3   13    9    0.002619    0.000001
   -3   -2    3   14    9   -0.000917   -0.000000
   -3   -2    3   15    9    0.002163    0.000001
   -3   -2    3    1   10    0.000581   -0.000000
   -3   -2    3    2   10    0.000140    0.000000
   -3   -2    3    3   10    0.000023    0.000000
   -3   -2    3    4   10    0.002158    0.000001
   -3   -2    3    5   10   -0.000418    0.000000
   -3   -2    3    6   10    0.006687    0.000002
   -3   -2    3    7   10   -0.001744    0.000000
   -3   -2    3    8   10   -0.001746   -0.000001
   -3   -2    3    9   10   -0.000241    0.000000
   -3   -2    3   10   10   -0.000178    0.000000
   -3   -2    3   11   10   -0.000002   -0.000000
   -3   -2    3   12   10    0.000161   -0.000000
   -3   -2    3   13   10    0.003727   -0.000000
   -3   -2    3   14   10    0.001316    0.000000
   -3   -2    3   15   10   -0.005739   -0.000000
   -3   -2    3    1   11   -0.000251    0.000000
   -3   -2    3    2   11   -0.000060   -0.000000
   -3   -2    3    3   11    0.000253    0.000000
   -3   -2    3    4   11   -0.000238   -0.000000
   -3   -2    3    5   11    0.002740   -0.000002
   -3   -2    3    6   11   -0.000252   -0.000000
   -3   -2    3    7   11    0.000118   -0.000000
   -3   -2    3    8   11   -0.002566   -0.000001
   -3   -2    3    9   11    0.001208   -0.000000
   -3   -2    3   10   11   -0.000188    0.000000
   -3   -2    3   11   11    0.000006    0.000000
   -3   -2    3   12   11    0.000141   -0.000000
   -3   -2    3   13   11    0.002708   -0.000000
   -3   -2    3   14   11   -0.003104   -0.000000
   -3   -2    3   15   11    0.001985    0.000000
   -3   -2    3    1   12    0.000301    0.000000
   -3   -2    3    2   12    0.000840    0.000000
   -3   -2    3    3   12    0.000098    0.000000
   -3   -2    3    4   12   -0.001144   -0.000000
   -3   -2    3    5   12   -0.002676    0.000002
   -3   -2    3    6   12    0.005155    0.000002
   -3   -2    3    7   12   -0.001626    0.000000
   -3   -2    3    8   12    0.001500    0.000001
   -3   -2    3    9   12    0.000295   -0.000000
   -3   -2    3   10   12    0.000463    0.000000
   -3   -2    3   11   12   -0.000046   -0.000000
   -3   -2    3   12   12    0.000065   -0.000000
   -3   -2    3   13   12   -0.005628    0.000000
   -3   -2    3   14   12    0.000556    0.000000
   -3   -2    3   15   12    0.005834    0.000000
   -3   -2    3    1   13   -0.000102   -0.000000
   -3   -2    3    2   13   -0.000561   -0.000000
   -3   -2    3    3   13    0.000697    0.000000
   -3   -2    3    4   13   -0.000559   -0.000000
   -3   -2    3    5   13    0.000270   -0.000000
   -3   -2    3    6   13    0.001078    0.000000
   -3   -2    3    7   13    0.000075   -0.000000
   -3   -2    3    8   13    0.000227    0.000000
   -3   -2    3    9   13   -0.000074    0.000000
   -3   -2    3   10   13   -0.000170   -0.000000
   -3   -2    3   11   13   -0.000160   -0.000000
   -3   -2    3   12   13   -0.000450    0.000000
   -3   -2    3   13   13   -0.000111    0.000000
   -3   -2    3   14   13   -0.000231   -0.000000
   -3   -2    3   15   13    0.000465    0.000000
   -3   -2    3    1   14    0.000053   -0.000000
   -3   -2    3    2   14    0.000499   -0.000000
   -3   -2    3    3   14   -0.001522   -0.000000
   -3   -2    3    4   14   -0.000022   -0.000000
   -3   -2    3    5   14    0.001017   -0.000001
   -3   -2    3    6   14   -0.000661   -0.000000
   -3   -2    3    7   14    0.000111   -0.000000
   -3   -2    3    8   14    0.000018    0.000000
   -3   -2    3    9   14    0.000265   -0.000000
   -3   -2    3   10   14   -0.000101    0.000000
   -3   -2    3   11   14    0.000935   -0.000000
   -3   -2    3   12   14   -0.000037    0.000000
   -3   -2    3   13   14    0.000352   -0.000000
   -3   -2    3   14   14    0.000370    0.000000
   -3   -2    3   15   14    0.000347   -0.000000
   -3   -2    3    1   15    0.000120   -0.000000
   -3   -2    3    2   15   -0.000734   -0.000000
   -3   -2    3    3   15    0.000438    0.000000
   -3   -2    3    4   15    0.000300    0.000000
   -3   -2    3    5   15    0.000446   -0.000000
   -3   -2    3    6   15    0.000781    0.000000
   -3   -2    3    7   15    0.000113   -0.000000
   -3   -2    3    8   15    0.000457    0.000000
   -3   -2    3    9   15   -0.000007    0.000000
   -3   -2    3   10   15   -0.000445    0.000000
   -3   -2    3   11   15   -0.000091   -0.000000
   -3   -2    3   12   15   -0.000278    0.000000
   -3   -2    3   13   15    0.000165   -0.000000
   -3   -2    3   14   15    0.000066    0.000000
   -3   -2    3   15   15    0.000091    0.000000
   -3   -1    1    1    1   -0.000248   -0.000000
   -3   -1    1    2    1    0.000150    0.000000
   -3   -1    1    3    1   -0.000075   -0.000000
   -3   -1    1    4    1   -0.002160   -0.000001
   -3   -1    1    5    1   -0.000917    0.000001
   -3   -1    1    6    1    0.005292    0.000002
   -3   -1    1    7    1    0.000326   -0.000000
   -3   -1    1    8    1    0.000170    0.000000
   -3   -1    1    9    1   -0.000089    0.000000
   -3   -1    1   10    1    0.000065    0.000000
   -3   -1    1   11    1   -0.000154   -0.000000
   -3   -1    1   12    1   -0.000020    0.000000
   -3   -1    1   13    1   -0.000935    0.000000
   -3   -1    1   14    1   -0.000188   -0.000000
   -3   -1    1   15    1    0.001436    0.000000
   -3   -1    1    1    2   -0.000075    0.000000
   -3   -1    1    2    2   -0.000039    0.000000
   -3   -1    1    3    2    0.000480    0.000000
   -3   -1    1    4    2    0.005963    0.000002
   -3   -1    1    5    2    0.004723   -0.000004
   -3   -1    1    6    2   -0.023908   -0.000006
   -3   -1    1    7    2    0.000706   -0.000000
   -3   -1    1    8    2    0.000291    0.000000
   -3   -1    1    9    2   -0.000232    0.000000
   -3   -1    1   10    2    0.000065   -0.000000
   -3   -1    1   11    2   -0.000313    0.000000
   -3   -1    1   12    2   -0.000115    0.000000
   -3   -1    1   13    2    0.000841   -0.000000
   -3   -1    1   14    2    0.005160    0.000000
   -3   -1    1   15    2   -0.007544    0.000000
   -3   -1    1    1    3    0.000150   -0.000000
   -3   -1    1    2    3    0.000714   -0.000000
   -3   -1    1    3    3   -0.000039    0.000000
   -3   -1    1    4    3   -0.004682   -0.000001
   -3   -1    1    5    3   -0.003610    0.000003
   -3   -1    1    6    3   -0.027874   -0.000006
   -3   -1    1    7    3    0.001270   -0.000000
   -3   -1    1    8    3    0.000619    0.000000
   -3   -1    1    9    3    0.000162   -0.000000
   -3   -1    1   10    3    0.000342   -0.000000
   -3   -1    1   11    3    0.000104   -0.000000
   -3   -1    1   12    3    0.000092   -0.000000
   -3   -1    1   13    3   -0.007282    0.000001
   -3   -1    1   14    3    0.002880   -0.000000
   -3   -1    1   15    3   -0.010407    0.000001
   -3   -1    1    1    4    0.000916   -0.000000
   -3   -1    1    2    4    0.003611   -0.000001
   -3   -1    1    3    4   -0.004710    0.000001
   -3   -1    1    4    4   -0.000035   -0.000000
   -3   -1    1    5    4   -0.000429    0.000000
   -3   -1    1    6    4    0.000058   -0.000000
   -3   -1    1    7    4    0.000959   -0.000000
   -3   -1    1    8    4   -0.000663   -0.000000
   -3   -1    1    9    4    0.000039   -0.000000
   -3   -1    1   10    4   -0.001466    0.000001
   -3   -1    1   11    4    0.002978   -0.000001
   -3   -1    1   12    4   -0.002083    0.000001
   -3   -1    1   13    4   -0.000109    0.000000
   -3   -1    1   14    4   -0.000186    0.000000
   -3   -1    1   15    4    0.000075   -0.000000
   -3   -1    1    1    5    0.002162    0.000002
   -3   -1    1    2    5    0.004695    0.000004
   -3   -1    1    3    5   -0.005961   -0.000005
   -3   -1    1    4    5   -0.000722   -0.000001
   -3   -1    1    5    5   -0.000035    0.000000
   -3   -1    1    6    5   -0.000395   -0.000000
   -3   -1    1    7    5   -0.000487   -0.000000
   -3   -1    1    8    5    0.000230    0.000000
   -3   -1    1    9    5   -0.000153   -0.000000
   -3   -1    1   10    5   -0.000150   -0.000000
   -3   -1    1   11    5    0.004687    0.000004
   -3   -1    1   12    5    0.000748    0.000001
   -3   -1    1   13    5   -0.000493   -0.000000
   -3   -1    1   14    5   -0.000165   -0.000000
   -3   -1    1   15    5   -0.000074   -0.000000
   -3   -1    1    1    6    0.005292   -0.000002
   -3   -1    1    2    6   -0.027874    0.000007
   -3   -1    1    3    6   -0.023908    0.000005
   -3   -1    1    4    6    0.000395    0.000000
   -3   -1    1    5    6   -0.000058    0.000000
   -3   -1    1    6    6   -0.000090   -0.000000
   -3   -1    1    7    6    0.000463   -0.000000
   -3   -1    1    8    6   -0.000392   -0.000000
   -3   -1    1    9    6   -0.000785    0.000000
   -3   -1    1   10    6    0.002933   -0.000001
   -3   -1    1   11    6    0.008208   -0.000002
   -3   -1    1   12    6   -0.007617    0.000002
   -3   -1    1   13    6    0.000661   -0.000000
   -3   -1    1   14    6    0.000081   -0.000000
   -3   -1    1   15    6    0.000300   -0.000000
   -3   -1    1    1    7   -0.000089   -0.000000
   -3   -1    1    2    7    0.000162    0.000000
   -3   -1    1    3    7   -0.000232   -0.000000
   -3   -1    1    4    7    0.000152    0.000000
   -3   -1    1    5    7   -0.000039    0.000000
   -3   -1    1    6    7   -0.000785   -0.000000
   -3   -1    1    7    7   -0.000251   -0.000000
   -3   -1    1    8    7    0.000091    0.000000
   -3   -1    1    9    7    0.000522   -0.000000
   -3   -1    1   10    7    0.000242    0.000000
   -3   -1    1   11    7    0.000331    0.000000
   -3   -1    1   12    7   -0.000268   -0.000000
   -3   -1    1   13    7   -0.000762   -0.000000
   -3   -1    1   14    7    0.000036    0.000000
   -3   -1    1   15    7   -0.000136   -0.000000
   -3   -1    1    1    8    0.000170   -0.000000
   -3   -1    1    2    8    0.000619   -0.000000
   -3   -1    1    3    8    0.000291   -0.000000
   -3   -1    1    4    8   -0.000230    0.000000
   -3   -1    1    5    8    0.000663   -0.000001
   -3   -1    1    6    8   -0.000392    0.000000
   -3   -1    1    7    8    0.000359   -0.000000
   -3   -1    1    8    8   -0.000066    0.000000
   -3   -1    1    9    8    0.000091   -0.000000
   -3   -1    1   10    8   -0.000551    0.000000
   -3   -1    1   11    8    0.000080   -0.000000
   -3   -1    1   12    8    0.000329   -0.000000
   -3   -1    1   13    8    0.000219   -0.000000
   -3   -1    1   14    8    0.000348   -0.000000
   -3   -1    1   15    8    0.000563   -0.000000
   -3   -1    1    1    9    0.000326    0.000000
   -3   -1    1    2    9    0.001270    0.000000
   -3   -1    1    3    9    0.000705    0.000000
   -3   -1    1    4    9    0.000487    0.000000
   -3   -1    1    5    9   -0.000959    0.000000
   -3   -1    1    6    9    0.000462    0.000000
   -3   -1    1    7    9    0.000569    0.000000
   -3   -1    1    8    9    0.000359    0.000000
   -3   -1    1    9    9   -0.000250   -0.000000
   -3   -1    1   10    9    0.000026    0.000000
   -3   -1    1   11    9   -0.000523   -0.000000
   -3   -1    1   12    9   -0.000023   -0.000000
   -3   -1    1   13    9    0.000312    0.000000
   -3   -1    1   14    9   -0.000466   -0.000000
   -3   -1    1   15    9   -0.000291   -0.000000
   -3   -1    1    1   10    0.000065   -0.000000
   -3   -1    1    2   10    0.000342    0.000000
   -3   -1    1    3   10    0.000066    0.000000
   -3   -1    1    4   10    0.000151    0.000000
   -3   -1    1    5   10    0.001467   -0.000001
   -3   -1    1    6   10    0.002933    0.000001
   -3   -1    1    7   10    0.000026   -0.000000
   -3   -1    1    8   10   -0.000551   -0.000000
   -3   -1    1    9   10    0.000242   -0.000000
   -3   -1    1   10   10    0.000357    0.000000
   -3   -1    1   11   10   -0.000108   -0.000000
   -3   -1    1   12   10    0.000062   -0.000000
   -3   -1    1   13   10   -0.000015    0.000000
   -3   -1    1   14   10   -0.000704   -0.000000
   -3   -1    1   15   10   -0.000140   -0.000000
   -3   -1    1    1   11    0.000021    0.000000
   -3   -1    1    2   11   -0.000093   -0.000000
   -3   -1    1    3   11    0.000118    0.000000
   -3   -1    1    4   11    0.000796    0.000000
   -3   -1    1    5   11   -0.002054    0.000002
   -3   -1    1    6   11    0.007535    0.000002
   -3   -1    1    7   11    0.000029   -0.000000
   -3   -1    1    8   11   -0.000330   -0.000000
   -3   -1    1    9   11    0.000265   -0.000000
   -3   -1    1   10   11   -0.000061    0.000000
   -3   -1    1   11   11   -0.000054   -0.000000
   -3   -1    1   12   11   -0.000052    0.000000
   -3   -1    1   13   11    0.001113   -0.000000
   -3   -1    1   14   11   -0.001496   -0.000000
   -3   -1    1   15   11    0.000345    0.000000
   -3   -1    1    1   12    0.000154    0.000000
   -3   -1    1    2   12   -0.000104   -0.000000
   -3   -1    1    3   12    0.000312    0.000000
   -3   -1    1    4   12    0.004678    0.000002
   -3   -1    1    5   12    0.003002   -0.000002
   -3   -1    1    6   12   -0.008284   -0.000002
   -3   -1    1    7   12    0.000523   -0.000000
   -3   -1    1    8   12   -0.000077   -0.000000
   -3   -1    1    9   12   -0.000334    0.000000
   -3   -1    1   10   12    0.000109    0.000000
   -3   -1    1   11   12   -0.000174   -0.000000
   -3   -1    1   12   12   -0.000052   -0.000000
   -3   -1    1   13   12   -0.000030    0.000000
   -3   -1    1   14   12    0.001373    0.000000
   -3   -1    1   15   12   -0.001301   -0.000000
   -3   -1    1    1   13    0.000188    0.000000
   -3   -1    1    2   13   -0.002880   -0.000000
   -3   -1    1    3   13   -0.005160   -0.000001
   -3   -1    1    4   13   -0.000165   -0.000000
   -3   -1    1    5   13   -0.000186    0.000000
   -3   -1    1    6   13   -0.000081   -0.000000
   -3   -1    1    7   13    0.000466   -0.000000
   -3   -1    1    8   13   -0.000348   -0.000000
   -3   -1    1    9   13   -0.000036    0.000000
   -3   -1    1   10   13    0.000704    0.000000
   -3   -1    1   11   13    0.001358    0.000000
   -3   -1    1   12   13   -0.001509    0.000000
   -3   -1    1   13   13   -0.000014   -0.000000
   -3   -1    1   14   13   -0.000108   -0.000000
   -3   -1    1   15   13    0.000023    0.000000
   -3   -1    1    1   14    0.000935   -0.000000
   -3   -1    1    2   14    0.007281   -0.000000
   -3   -1    1    3   14   -0.000841   -0.000000
   -3   -1    1    4   14   -0.000493   -0.000000
   -3   -1    1    5   14   -0.000109    0.000000
   -3   -1    1    6   14   -0.000661   -0.000000
   -3   -1    1    7   14   -0.000312    0.000000
   -3   -1    1    8   14   -0.000219   -0.000000
   -3   -1    1    9   14    0.000762   -0.000000
   -3   -1    1   10   14    0.000015    0.000000
   -3   -1    1   11   14   -0.000019    0.000000
   -3   -1    1   12   14    0.001113   -0.000000
   -3   -1    1   13   14   -0.000291    0.000000
   -3   -1    1   14   14   -0.000014    0.000000
   -3   -1    1   15   14   -0.000186    0.000000
   -3   -1    1    1   15    0.001436   -0.000000
   -3   -1    1    2   15   -0.010407   -0.000000
   -3   -1    1    3   15   -0.007543   -0.000001
   -3   -1    1    4   15    0.000075    0.000000
   -3   -1    1    5   15   -0.000075    0.000000
   -3   -1    1    6   15    0.000300    0.000000
   -3   -1    1    7   15   -0.000291    0.000000
   -3   -1    1    8   15    0.000563    0.000000
   -3   -1    1    9   15   -0.000136    0.000000
   -3   -1    1   10   15   -0.000140    0.000000
   -3   -1    1   11   15    0.001297   -0.000000
   -3   -1    1   12   15   -0.000357    0.000000
   -3   -1    1   13   15    0.000187   -0.000000
   -3   -1    1   14   15   -0.000023   -0.000000
[...]
    4   -2    0    7    4   -0.003299    0.000001
    4   -2    0    8    4    0.001048    0.000000
    4   -2    0    9    4    0.008313   -0.000006
    4   -2    0   10    4   -0.000619    0.000000
    4   -2    0   11    4    0.002986   -0.000001
    4   -2    0   12    4    0.004757   -0.000002
    4   -2    0   13    4    0.000328   -0.000000
    4   -2    0   14    4   -0.000141    0.000000
    4   -2    0   15    4    0.000041   -0.000000
    4   -2    0    1    5   -0.015507   -0.000012
    4   -2    0    2    5   -0.002395   -0.000002
    4   -2    0    3    5   -0.003746   -0.000003
    4   -2    0    4    5   -0.000387   -0.000000
    4   -2    0    5    5    0.000853    0.000000
    4   -2    0    6    5    0.000372    0.000000
    4   -2    0    7    5   -0.005545   -0.000004
    4   -2    0    8    5    0.000543    0.000001
    4   -2    0    9    5    0.005985    0.000003
    4   -2    0   10    5    0.001189    0.000001
    4   -2    0   11    5    0.002757    0.000002
    4   -2    0   12    5    0.004347    0.000003
    4   -2    0   13    5   -0.000233   -0.000000
    4   -2    0   14    5   -0.001039   -0.000001
    4   -2    0   15    5    0.000238    0.000000
    4   -2    0    1    6    0.003171   -0.000001
    4   -2    0    2    6   -0.000100    0.000000
    4   -2    0    3    6    0.015675   -0.000003
    4   -2    0    4    6    0.000556    0.000000
    4   -2    0    5    6    0.000237   -0.000000
    4   -2    0    6    6    0.000559   -0.000000
    4   -2    0    7    6    0.014488   -0.000004
    4   -2    0    8    6   -0.008219   -0.000001
    4   -2    0    9    6    0.014612   -0.000009
    4   -2    0   10    6   -0.000588    0.000000
    4   -2    0   11    6    0.006489   -0.000002
    4   -2    0   12    6   -0.005931    0.000002
    4   -2    0   13    6    0.000263   -0.000000
    4   -2    0   14    6    0.000107   -0.000000
    4   -2    0   15    6    0.000052   -0.000000
    4   -2    0    1    7   -0.000265   -0.000000
    4   -2    0    2    7    0.005669    0.000000
    4   -2    0    3    7   -0.009305   -0.000001
    4   -2    0    4    7   -0.000325   -0.000000
    4   -2    0    5    7   -0.000459    0.000000
    4   -2    0    6    7    0.000466    0.000000
    4   -2    0    7    7    0.000841   -0.000000
    4   -2    0    8    7   -0.000042   -0.000000
    4   -2    0    9    7   -0.000500    0.000000
    4   -2    0   10    7   -0.000366   -0.000000
    4   -2    0   11    7    0.001160    0.000000
    4   -2    0   12    7   -0.002912   -0.000000
    4   -2    0   13    7   -0.000453   -0.000000
    4   -2    0   14    7   -0.000414   -0.000000
    4   -2    0   15    7    0.000171    0.000000
    4   -2    0    1    8    0.006044   -0.000003
    4   -2    0    2    8   -0.017730    0.000008
    4   -2    0    3    8   -0.015661    0.000006
    4   -2    0    4    8    0.000505   -0.000000
    4   -2    0    5    8   -0.000066    0.000000
    4   -2    0    6    8    0.000331   -0.000000
    4   -2    0    7    8   -0.001088    0.000001
    4   -2    0    8    8    0.000600    0.000000
    4   -2    0    9    8   -0.000822    0.000001
    4   -2    0   10    8   -0.000681    0.000000
    4   -2    0   11    8    0.003926   -0.000002
    4   -2    0   12    8   -0.002914    0.000001
    4   -2    0   13    8    0.000461   -0.000000
    4   -2    0   14    8    0.000106   -0.000000
    4   -2    0   15    8   -0.000045    0.000000
    4   -2    0    1    9   -0.000461   -0.000000
    4   -2    0    2    9   -0.010366   -0.000004
    4   -2    0    3    9    0.005615    0.000002
    4   -2    0    4    9    0.000533    0.000000
    4   -2    0    5    9   -0.000114    0.000000
    4   -2    0    6    9    0.000504    0.000000
    4   -2    0    7    9   -0.000710   -0.000000
    4   -2    0    8    9   -0.000511   -0.000000
    4   -2    0    9    9    0.000646   -0.000000
    4   -2    0   10    9    0.000639    0.000000
    4   -2    0   11    9   -0.001523   -0.000001
    4   -2    0   12    9    0.000556    0.000000
    4   -2    0   13    9    0.000450    0.000000
    4   -2    0   14    9    0.000049    0.000000
    4   -2    0   15    9   -0.000139   -0.000000
    4   -2    0    1   10   -0.001065    0.000000
    4   -2    0    2   10   -0.000689   -0.000000
    4   -2    0    3   10   -0.000318   -0.000000
    4   -2    0    4   10   -0.000211   -0.000000
    4   -2    0    5   10   -0.000275    0.000000
    4   -2    0    6   10    0.000664    0.000000
    4   -2    0    7   10   -0.000416    0.000000
    4   -2    0    8   10    0.000036    0.000000
    4   -2    0    9   10    0.000079   -0.000000
    4   -2    0   10   10    0.000435    0.000000
    4   -2    0   11   10   -0.000077   -0.000000
    4   -2    0   12   10   -0.000160   -0.000000
    4   -2    0   13   10   -0.000320    0.000000
    4   -2    0   14   10   -0.000344   -0.000000
    4   -2    0   15   10   -0.000214   -0.000000
    4   -2    0    1   11    0.000315   -0.000000
    4   -2    0    2   11    0.000646    0.000000
    4   -2    0    3   11    0.000077    0.000000
    4   -2    0    4   11    0.000138    0.000000
    4   -2    0    5   11    0.000044   -0.000000
    4   -2    0    6   11   -0.000164   -0.000000
    4   -2    0    7   11    0.000199   -0.000000
    4   -2    0    8   11   -0.000123   -0.000000
    4   -2    0    9   11   -0.000039    0.000000
    4   -2    0   10   11   -0.000022    0.000000
    4   -2    0   11   11    0.000551    0.000000
    4   -2    0   12   11    0.000085   -0.000000
    4   -2    0   13   11    0.000233   -0.000000
    4   -2    0   14   11   -0.000186   -0.000000
    4   -2    0   15   11   -0.000171   -0.000000
    4   -2    0    1   12    0.000231    0.000000
    4   -2    0    2   12   -0.000042   -0.000000
    4   -2    0    3   12    0.000264    0.000000
    4   -2    0    4   12    0.000649    0.000000
    4   -2    0    5   12    0.000405   -0.000000
    4   -2    0    6   12   -0.000417   -0.000000
    4   -2    0    7   12    0.000074   -0.000000
    4   -2    0    8   12   -0.000194   -0.000000
    4   -2    0    9   12   -0.000216    0.000000
    4   -2    0   10   12    0.000201    0.000000
    4   -2    0   11   12   -0.000151   -0.000000
    4   -2    0   12   12    0.000731    0.000000
    4   -2    0   13   12    0.000734    0.000000
    4   -2    0   14   12    0.000270    0.000000
    4   -2    0   15   12   -0.000175   -0.000000
    4   -2    0    1   13   -0.003020   -0.000000
    4   -2    0    2   13   -0.001564   -0.000000
    4   -2    0    3   13   -0.006183   -0.000001
    4   -2    0    4   13    0.001009    0.000000
    4   -2    0    5   13   -0.000005    0.000000
    4   -2    0    6   13    0.000299    0.000000
    4   -2    0    7   13    0.004697   -0.000000
    4   -2    0    8   13   -0.001206   -0.000001
    4   -2    0    9   13    0.002272   -0.000001
    4   -2    0   10   13    0.001605    0.000000
    4   -2    0   11   13   -0.000470   -0.000000
    4   -2    0   12   13    0.000525    0.000000
    4   -2    0   13   13    0.001026    0.000000
    4   -2    0   14   13    0.000076    0.000000
    4   -2    0   15   13   -0.000037   -0.000000
    4   -2    0    1   14    0.002048   -0.000000
    4   -2    0    2   14    0.002845   -0.000000
    4   -2    0    3   14    0.001366    0.000000
    4   -2    0    4   14   -0.000177   -0.000000
    4   -2    0    5   14    0.000407   -0.000000
    4   -2    0    6   14   -0.000079   -0.000000
    4   -2    0    7   14   -0.003123    0.000000
    4   -2    0    8   14    0.000893    0.000000
    4   -2    0    9   14   -0.000495    0.000000
    4   -2    0   10   14   -0.001233    0.000000
    4   -2    0   11   14    0.003894   -0.000000
    4   -2    0   12   14    0.000198   -0.000000
    4   -2    0   13   14   -0.000006   -0.000000
    4   -2    0   14   14    0.000409   -0.000000
    4   -2    0   15   14    0.000009    0.000000
    4   -2    0    1   15    0.003073   -0.000000
    4   -2    0    2   15   -0.004603   -0.000000
    4   -2    0    3   15   -0.007640   -0.000001
    4   -2    0    4   15    0.000104    0.000000
    4   -2    0    5   15    0.000085   -0.000000
    4   -2    0    6   15    0.000338    0.000000
    4   -2    0    7   15    0.003857   -0.000000
    4   -2    0    8   15   -0.001813   -0.000001
    4   -2    0    9   15    0.003706   -0.000001
    4   -2    0   10   15    0.003863   -0.000000
    4   -2    0   11   15    0.002898   -0.000000
    4   -2    0   12   15   -0.001486    0.000000
    4   -2    0   13   15   -0.000041    0.000000
    4   -2    0   14   15   -0.000038    0.000000
    4   -2    0   15   15    0.000540    0.000000
    4   -1   -1    1    1    0.000981    0.000000
    4   -1   -1    2    1    0.000149    0.000000
    4   -1   -1    3    1    0.000149    0.000000
    4   -1   -1    4    1   -0.000479   -0.000000
    4   -1   -1    5    1    0.000479   -0.000000
    4   -1   -1    6    1    0.000243    0.000000
    4   -1   -1    7    1   -0.000088    0.000000
    4   -1   -1    8    1    0.000075    0.000000
    4   -1   -1    9    1   -0.000088    0.000000
    4   -1   -1   10    1    0.000954    0.000000
    4   -1   -1   11    1    0.000217    0.000000
    4   -1   -1   12    1   -0.000219    0.000000
    4   -1   -1   13    1   -0.000190    0.000000
    4   -1   -1   14    1    0.000190    0.000000
    4   -1   -1   15    1    0.000280    0.000000
    4   -1   -1    1    2    0.000489   -0.000000
    4   -1   -1    2    2   -0.000220    0.000000
    4   -1   -1    3    2    0.000402    0.000000
    4   -1   -1    4    2   -0.000412   -0.000000
    4   -1   -1    5    2   -0.001748    0.000001
    4   -1   -1    6    2   -0.000421   -0.000000
    4   -1   -1    7    2    0.000048   -0.000000
    4   -1   -1    8    2   -0.000021   -0.000000
    4   -1   -1    9    2    0.000660   -0.000000
    4   -1   -1   10    2    0.000403   -0.000000
    4   -1   -1   11    2    0.000189   -0.000000
    4   -1   -1   12    2   -0.000658    0.000000
    4   -1   -1   13    2   -0.001425    0.000000
    4   -1   -1   14    2   -0.000421   -0.000000
    4   -1   -1   15    2    0.000125   -0.000000
    4   -1   -1    1    3    0.000489   -0.000000
    4   -1   -1    2    3    0.000402   -0.000000
    4   -1   -1    3    3   -0.000220    0.000000
    4   -1   -1    4    3    0.001746    0.000001
    4   -1   -1    5    3    0.000412   -0.000000
    4   -1   -1    6    3   -0.000422   -0.000000
    4   -1   -1    7    3    0.000660   -0.000000
    4   -1   -1    8    3   -0.000021   -0.000000
    4   -1   -1    9    3    0.000048   -0.000000
    4   -1   -1   10    3    0.000403   -0.000000
    4   -1   -1   11    3    0.000655   -0.000000
    4   -1   -1   12    3   -0.000196    0.000000
    4   -1   -1   13    3    0.000421   -0.000000
    4   -1   -1   14    3    0.001425   -0.000000
    4   -1   -1   15    3    0.000125   -0.000000
    4   -1   -1    1    4    0.000898   -0.000000
    4   -1   -1    2    4   -0.004199    0.000001
    4   -1   -1    3    4   -0.000486    0.000000
    4   -1   -1    4    4   -0.001145    0.000000
    4   -1   -1    5    4    0.000046   -0.000000
    4   -1   -1    6    4   -0.000335    0.000000
    4   -1   -1    7    4    0.007283   -0.000003
    4   -1   -1    8    4    0.001189    0.000000
    4   -1   -1    9    4   -0.004379    0.000003
    4   -1   -1   10    4   -0.002222    0.000001
    4   -1   -1   11    4   -0.000570    0.000000
    4   -1   -1   12    4   -0.004734    0.000002
    4   -1   -1   13    4    0.000536   -0.000000
    4   -1   -1   14    4    0.000132   -0.000000
    4   -1   -1   15    4   -0.000131    0.000000
    4   -1   -1    1    5   -0.000899   -0.000001
    4   -1   -1    2    5    0.000489    0.000000
    4   -1   -1    3    5    0.004197    0.000004
    4   -1   -1    4    5    0.000046    0.000000
    4   -1   -1    5    5   -0.001145   -0.000000
    4   -1   -1    6    5    0.000334    0.000000
    4   -1   -1    7    5    0.004383    0.000003
    4   -1   -1    8    5   -0.001190   -0.000001
    4   -1   -1    9    5   -0.007282   -0.000003
    4   -1   -1   10    5    0.002221    0.000002
    4   -1   -1   11    5   -0.004740   -0.000004
    4   -1   -1   12    5   -0.000533   -0.000000
    4   -1   -1   13    5    0.000132    0.000000
    4   -1   -1   14    5    0.000535    0.000000
    4   -1   -1   15    5    0.000131    0.000000
    4   -1   -1    1    6    0.001605   -0.000000
    4   -1   -1    2    6   -0.000846    0.000000
    4   -1   -1    3    6   -0.000846    0.000000
    4   -1   -1    4    6    0.000001   -0.000000
    4   -1   -1    5    6   -0.000001   -0.000000
    4   -1   -1    6    6    0.001044   -0.000000
    4   -1   -1    7    6    0.004281   -0.000001
    4   -1   -1    8    6   -0.004958   -0.000001
    4   -1   -1    9    6    0.004281   -0.000003
    4   -1   -1   10    6   -0.005339    0.000001
    4   -1   -1   11    6    0.003406   -0.000001
    4   -1   -1   12    6   -0.003446    0.000001
    4   -1   -1   13    6    0.000053   -0.000000
    4   -1   -1   14    6   -0.000053    0.000000
    4   -1   -1   15    6    0.000299   -0.000000
    4   -1   -1    1    7    0.000161   -0.000000
    4   -1   -1    2    7   -0.004462   -0.000000
    4   -1   -1    3    7    0.010098    0.000001
    4   -1   -1    4    7    0.000085    0.000000
    4   -1   -1    5    7    0.000531   -0.000000
    4   -1   -1    6    7    0.000121    0.000000
    4   -1   -1    7    7   -0.000954   -0.000000
    4   -1   -1    8    7    0.000238    0.000000
    4   -1   -1    9    7    0.000559   -0.000000
    4   -1   -1   10    7    0.000330    0.000000
    4   -1   -1   11    7   -0.001413   -0.000000
    4   -1   -1   12    7    0.001372    0.000000
    4   -1   -1   13    7    0.000229    0.000000
    4   -1   -1   14    7    0.000424    0.000000
    4   -1   -1   15    7    0.000061    0.000000
    4   -1   -1    1    8    0.008638   -0.000004
    4   -1   -1    2    8    0.004184   -0.000002
    4   -1   -1    3    8    0.004184   -0.000002
    4   -1   -1    4    8    0.000100   -0.000000
    4   -1   -1    5    8   -0.000100    0.000000
    4   -1   -1    6    8    0.000286   -0.000000
    4   -1   -1    7    8    0.000187   -0.000000
    4   -1   -1    8    8    0.000723    0.000000
    4   -1   -1    9    8    0.000187   -0.000000
    4   -1   -1   10    8   -0.001975    0.000001
    4   -1   -1   11    8    0.002840   -0.000001
    4   -1   -1   12    8   -0.002870    0.000001
    4   -1   -1   13    8   -0.000071    0.000000
    4   -1   -1   14    8    0.000071   -0.000000
    4   -1   -1   15    8    0.000289   -0.000000
    4   -1   -1    1    9    0.000161    0.000000
    4   -1   -1    2    9    0.010097    0.000004
    4   -1   -1    3    9   -0.004462   -0.000002
    4   -1   -1    4    9   -0.000530   -0.000000
    4   -1   -1    5    9   -0.000085    0.000000
    4   -1   -1    6    9    0.000121    0.000000
    4   -1   -1    7    9    0.000559    0.000000
    4   -1   -1    8    9    0.000238    0.000000
    4   -1   -1    9    9   -0.000954   -0.000000
    4   -1   -1   10    9    0.000330    0.000000
    4   -1   -1   11    9   -0.001357   -0.000000
    4   -1   -1   12    9    0.001430    0.000000
    4   -1   -1   13    9   -0.000424   -0.000000
    4   -1   -1   14    9   -0.000229   -0.000000
    4   -1   -1   15    9    0.000061    0.000000
    4   -1   -1    1   10   -0.001573    0.000000
    4   -1   -1    2   10    0.000027    0.000000
    4   -1   -1    3   10    0.000027    0.000000
    4   -1   -1    4   10   -0.000193   -0.000000
    4   -1   -1    5   10    0.000193   -0.000000
    4   -1   -1    6   10    0.000996    0.000000
    4   -1   -1    7   10   -0.000284    0.000000
    4   -1   -1    8   10   -0.000140   -0.000000
    4   -1   -1    9   10   -0.000283    0.000000
    4   -1   -1   10   10    0.000701    0.000000
    4   -1   -1   11   10    0.000103    0.000000
    4   -1   -1   12   10   -0.000104    0.000000
    4   -1   -1   13   10   -0.000033    0.000000
    4   -1   -1   14   10    0.000033    0.000000
    4   -1   -1   15   10   -0.000254   -0.000000
    4   -1   -1    1   11   -0.000678    0.000000
    4   -1   -1    2   11   -0.000527   -0.000000
    4   -1   -1    3   11    0.000038    0.000000
    4   -1   -1    4   11   -0.000333   -0.000000
    4   -1   -1    5   11   -0.000674    0.000001
    4   -1   -1    6   11    0.000444    0.000000
    4   -1   -1    7   11   -0.000227    0.000000
    4   -1   -1    8   11    0.000148    0.000000
    4   -1   -1    9   11   -0.000062    0.000000
    4   -1   -1   10   11   -0.000319    0.000000
    4   -1   -1   11   11   -0.000871    0.000000
    4   -1   -1   12   11    0.000066   -0.000000
    4   -1   -1   13   11   -0.000260    0.000000
    4   -1   -1   14   11   -0.000200   -0.000000
    4   -1   -1   15   11   -0.000022    0.000000
    4   -1   -1    1   12    0.000685    0.000000
    4   -1   -1    2   12   -0.000035   -0.000000
    4   -1   -1    3   12    0.000524    0.000000
    4   -1   -1    4   12   -0.000671   -0.000000
    4   -1   -1    5   12   -0.000326    0.000000
    4   -1   -1    6   12   -0.000450   -0.000000
    4   -1   -1    7   12    0.000064   -0.000000
    4   -1   -1    8   12   -0.000149   -0.000000
    4   -1   -1    9   12    0.000228   -0.000000
    4   -1   -1   10   12    0.000322    0.000000
    4   -1   -1   11   12    0.000066    0.000000
    4   -1   -1   12   12   -0.000872   -0.000000
    4   -1   -1   13   12   -0.000198    0.000000
    4   -1   -1   14   12   -0.000258   -0.000000
    4   -1   -1   15   12    0.000023    0.000000
    4   -1   -1    1   13   -0.001137   -0.000000
    4   -1   -1    2   13    0.000700    0.000000
    4   -1   -1    3   13    0.002769    0.000000
    4   -1   -1    4   13   -0.000928   -0.000000
    4   -1   -1    5   13    0.000073   -0.000000
    4   -1   -1    6   13   -0.000343   -0.000000
    4   -1   -1    7   13   -0.003267    0.000000
    4   -1   -1    8   13    0.001000    0.000000
    4   -1   -1    9   13   -0.003210    0.000001
    4   -1   -1   10   13   -0.002271   -0.000000
    4   -1   -1   11   13    0.000574    0.000000
    4   -1   -1   12   13   -0.002686   -0.000000
    4   -1   -1   13   13   -0.000907   -0.000000
    4   -1   -1   14   13    0.000057    0.000000
    4   -1   -1   15   13   -0.000130   -0.000000
    4   -1   -1    1   14    0.001137   -0.000000
    4   -1   -1    2   14   -0.002771    0.000000
    4   -1   -1    3   14   -0.000701   -0.000000
    4   -1   -1    4   14    0.000073    0.000000
    4   -1   -1    5   14   -0.000928    0.000001
    4   -1   -1    6   14    0.000343    0.000000
    4   -1   -1    7   14    0.003209   -0.000000
    4   -1   -1    8   14   -0.001000   -0.000000
    4   -1   -1    9   14    0.003267   -0.000001
    4   -1   -1   10   14    0.002271   -0.000000
    4   -1   -1   11   14   -0.002680    0.000000
    4   -1   -1   12   14    0.000596   -0.000000
    4   -1   -1   13   14    0.000057   -0.000000
    4   -1   -1   14   14   -0.000907    0.000000
    4   -1   -1   15   14    0.000130   -0.000000
    4   -1   -1    1   15    0.003819   -0.000000
    4   -1   -1    2   15   -0.002010   -0.000000
    4   -1   -1    3   15   -0.002010   -0.000000
    4   -1   -1    4   15    0.000074    0.000000
    4   -1   -1    5   15   -0.000074    0.000000
    4   -1   -1    6   15    0.000764    0.000000
    4   -1   -1    7   15   -0.002086    0.000000
    4   -1   -1    8   15    0.000087    0.000000
    4   -1   -1    9   15   -0.002086    0.000001
    4   -1   -1   10   15    0.001625   -0.000000
    4   -1   -1   11   15    0.001783   -0.000000
    4   -1   -1   12   15   -0.001804    0.000000
    4   -1   -1   13   15    0.000304   -0.000000
    4   -1   -1   14   15   -0.000304   -0.000000
    4   -1   -1   15   15    0.000920   -0.000000
